 title= "nonlinear solution"
 variables= "x", "t", "u" 
 zone F=point, I=          41 J=          25
  0.00000000D+00    0.00000000D+00    0.00000000D+00
  0.10000000D+01    0.00000000D+00    0.00000000D+00
  0.20000000D+01    0.00000000D+00    0.00000000D+00
  0.30000000D+01    0.00000000D+00    0.00000000D+00
  0.40000000D+01    0.00000000D+00    0.00000000D+00
  0.50000000D+01    0.00000000D+00    0.00000000D+00
  0.60000000D+01    0.00000000D+00    0.00000000D+00
  0.70000000D+01    0.00000000D+00    0.00000000D+00
  0.80000000D+01    0.00000000D+00    0.00000000D+00
  0.90000000D+01    0.00000000D+00    0.00000000D+00
  0.10000000D+02    0.00000000D+00    0.00000000D+00
  0.11000000D+02    0.00000000D+00    0.00000000D+00
  0.12000000D+02    0.00000000D+00    0.00000000D+00
  0.13000000D+02    0.00000000D+00    0.00000000D+00
  0.14000000D+02    0.00000000D+00    0.00000000D+00
  0.15000000D+02    0.00000000D+00    0.00000000D+00
  0.16000000D+02    0.00000000D+00    0.00000000D+00
  0.17000000D+02    0.00000000D+00    0.00000000D+00
  0.18000000D+02    0.00000000D+00    0.00000000D+00
  0.19000000D+02    0.00000000D+00    0.00000000D+00
  0.20000000D+02    0.00000000D+00    0.00000000D+00
  0.21000000D+02    0.00000000D+00    0.00000000D+00
  0.22000000D+02    0.00000000D+00    0.00000000D+00
  0.23000000D+02    0.00000000D+00    0.00000000D+00
  0.24000000D+02    0.00000000D+00    0.00000000D+00
  0.25000000D+02    0.00000000D+00    0.00000000D+00
  0.26000000D+02    0.00000000D+00    0.00000000D+00
  0.27000000D+02    0.00000000D+00    0.00000000D+00
  0.28000000D+02    0.00000000D+00    0.00000000D+00
  0.29000000D+02    0.00000000D+00    0.00000000D+00
  0.30000000D+02    0.00000000D+00    0.00000000D+00
  0.31000000D+02    0.00000000D+00    0.00000000D+00
  0.32000000D+02    0.00000000D+00    0.00000000D+00
  0.33000000D+02    0.00000000D+00    0.00000000D+00
  0.34000000D+02    0.00000000D+00    0.00000000D+00
  0.35000000D+02    0.00000000D+00    0.00000000D+00
  0.36000000D+02    0.00000000D+00    0.00000000D+00
  0.37000000D+02    0.00000000D+00    0.00000000D+00
  0.38000000D+02    0.00000000D+00    0.00000000D+00
  0.39000000D+02    0.00000000D+00    0.00000000D+00
  0.40000000D+02    0.00000000D+00    0.00000000D+00
  0.00000000D+00    0.10000000D+00    0.50000000D+01
  0.10000000D+01    0.10000000D+00    0.50000000D+01
  0.20000000D+01    0.10000000D+00    0.50000000D+01
  0.30000000D+01    0.10000000D+00    0.50000000D+01
  0.40000000D+01    0.10000000D+00    0.50000000D+01
  0.50000000D+01    0.10000000D+00    0.50000000D+01
  0.60000000D+01    0.10000000D+00    0.50000000D+01
  0.70000000D+01    0.10000000D+00    0.50000000D+01
  0.80000000D+01    0.10000000D+00    0.50000000D+01
  0.90000000D+01    0.10000000D+00    0.50000000D+01
  0.10000000D+02    0.10000000D+00    0.50000000D+01
  0.11000000D+02    0.10000000D+00    0.50000000D+01
  0.12000000D+02    0.10000000D+00    0.50000000D+01
  0.13000000D+02    0.10000000D+00    0.50000000D+01
  0.14000000D+02    0.10000000D+00    0.50000000D+01
  0.15000000D+02    0.10000000D+00    0.50000000D+01
  0.16000000D+02    0.10000000D+00    0.50000000D+01
  0.17000000D+02    0.10000000D+00    0.50000000D+01
  0.18000000D+02    0.10000000D+00    0.50000000D+01
  0.19000000D+02    0.10000000D+00    0.50000000D+01
  0.20000000D+02    0.10000000D+00    0.54687500D+01
  0.21000000D+02    0.10000000D+00    0.78125001D+00
  0.22000000D+02    0.10000000D+00    0.00000000D+00
  0.23000000D+02    0.10000000D+00    0.00000000D+00
  0.24000000D+02    0.10000000D+00    0.00000000D+00
  0.25000000D+02    0.10000000D+00    0.00000000D+00
  0.26000000D+02    0.10000000D+00    0.00000000D+00
  0.27000000D+02    0.10000000D+00    0.00000000D+00
  0.28000000D+02    0.10000000D+00    0.00000000D+00
  0.29000000D+02    0.10000000D+00    0.00000000D+00
  0.30000000D+02    0.10000000D+00    0.00000000D+00
  0.31000000D+02    0.10000000D+00    0.00000000D+00
  0.32000000D+02    0.10000000D+00    0.00000000D+00
  0.33000000D+02    0.10000000D+00    0.00000000D+00
  0.34000000D+02    0.10000000D+00    0.00000000D+00
  0.35000000D+02    0.10000000D+00    0.00000000D+00
  0.36000000D+02    0.10000000D+00    0.00000000D+00
  0.37000000D+02    0.10000000D+00    0.00000000D+00
  0.38000000D+02    0.10000000D+00    0.00000000D+00
  0.39000000D+02    0.10000000D+00    0.00000000D+00
  0.40000000D+02    0.10000000D+00    0.00000000D+00
  0.00000000D+00    0.20000000D+00    0.50000000D+01
  0.10000000D+01    0.20000000D+00    0.50000000D+01
  0.20000000D+01    0.20000000D+00    0.50000000D+01
  0.30000000D+01    0.20000000D+00    0.50000000D+01
  0.40000000D+01    0.20000000D+00    0.50000000D+01
  0.50000000D+01    0.20000000D+00    0.50000000D+01
  0.60000000D+01    0.20000000D+00    0.50000000D+01
  0.70000000D+01    0.20000000D+00    0.50000000D+01
  0.80000000D+01    0.20000000D+00    0.50000000D+01
  0.90000000D+01    0.20000000D+00    0.50000000D+01
  0.10000000D+02    0.20000000D+00    0.50000000D+01
  0.11000000D+02    0.20000000D+00    0.50000000D+01
  0.12000000D+02    0.20000000D+00    0.50000000D+01
  0.13000000D+02    0.20000000D+00    0.50000000D+01
  0.14000000D+02    0.20000000D+00    0.50000000D+01
  0.15000000D+02    0.20000000D+00    0.50000000D+01
  0.16000000D+02    0.20000000D+00    0.50000000D+01
  0.17000000D+02    0.20000000D+00    0.50000000D+01
  0.18000000D+02    0.20000000D+00    0.50000000D+01
  0.19000000D+02    0.20000000D+00    0.49415350D+01
  0.20000000D+02    0.20000000D+00    0.57853937D+01
  0.21000000D+02    0.20000000D+00    0.17572165D+01
  0.22000000D+02    0.20000000D+00    0.15854836D-01
  0.23000000D+02    0.20000000D+00    0.00000000D+00
  0.24000000D+02    0.20000000D+00    0.00000000D+00
  0.25000000D+02    0.20000000D+00    0.00000000D+00
  0.26000000D+02    0.20000000D+00    0.00000000D+00
  0.27000000D+02    0.20000000D+00    0.00000000D+00
  0.28000000D+02    0.20000000D+00    0.00000000D+00
  0.29000000D+02    0.20000000D+00    0.00000000D+00
  0.30000000D+02    0.20000000D+00    0.00000000D+00
  0.31000000D+02    0.20000000D+00    0.00000000D+00
  0.32000000D+02    0.20000000D+00    0.00000000D+00
  0.33000000D+02    0.20000000D+00    0.00000000D+00
  0.34000000D+02    0.20000000D+00    0.00000000D+00
  0.35000000D+02    0.20000000D+00    0.00000000D+00
  0.36000000D+02    0.20000000D+00    0.00000000D+00
  0.37000000D+02    0.20000000D+00    0.00000000D+00
  0.38000000D+02    0.20000000D+00    0.00000000D+00
  0.39000000D+02    0.20000000D+00    0.00000000D+00
  0.40000000D+02    0.20000000D+00    0.00000000D+00
  0.00000000D+00    0.30000000D+00    0.50000000D+01
  0.10000000D+01    0.30000000D+00    0.50000000D+01
  0.20000000D+01    0.30000000D+00    0.50000000D+01
  0.30000000D+01    0.30000000D+00    0.50000000D+01
  0.40000000D+01    0.30000000D+00    0.50000000D+01
  0.50000000D+01    0.30000000D+00    0.50000000D+01
  0.60000000D+01    0.30000000D+00    0.50000000D+01
  0.70000000D+01    0.30000000D+00    0.50000000D+01
  0.80000000D+01    0.30000000D+00    0.50000000D+01
  0.90000000D+01    0.30000000D+00    0.50000000D+01
  0.10000000D+02    0.30000000D+00    0.50000000D+01
  0.11000000D+02    0.30000000D+00    0.50000000D+01
  0.12000000D+02    0.30000000D+00    0.50000000D+01
  0.13000000D+02    0.30000000D+00    0.50000000D+01
  0.14000000D+02    0.30000000D+00    0.50000000D+01
  0.15000000D+02    0.30000000D+00    0.50000000D+01
  0.16000000D+02    0.30000000D+00    0.50000000D+01
  0.17000000D+02    0.30000000D+00    0.50000000D+01
  0.18000000D+02    0.30000000D+00    0.50073079D+01
  0.19000000D+02    0.30000000D+00    0.48583638D+01
  0.20000000D+02    0.30000000D+00    0.59108337D+01
  0.21000000D+02    0.30000000D+00    0.28735953D+01
  0.22000000D+02    0.30000000D+00    0.99893154D-01
  0.23000000D+02    0.30000000D+00    0.62893779D-05
  0.24000000D+02    0.30000000D+00    0.00000000D+00
  0.25000000D+02    0.30000000D+00    0.00000000D+00
  0.26000000D+02    0.30000000D+00    0.00000000D+00
  0.27000000D+02    0.30000000D+00    0.00000000D+00
  0.28000000D+02    0.30000000D+00    0.00000000D+00
  0.29000000D+02    0.30000000D+00    0.00000000D+00
  0.30000000D+02    0.30000000D+00    0.00000000D+00
  0.31000000D+02    0.30000000D+00    0.00000000D+00
  0.32000000D+02    0.30000000D+00    0.00000000D+00
  0.33000000D+02    0.30000000D+00    0.00000000D+00
  0.34000000D+02    0.30000000D+00    0.00000000D+00
  0.35000000D+02    0.30000000D+00    0.00000000D+00
  0.36000000D+02    0.30000000D+00    0.00000000D+00
  0.37000000D+02    0.30000000D+00    0.00000000D+00
  0.38000000D+02    0.30000000D+00    0.00000000D+00
  0.39000000D+02    0.30000000D+00    0.00000000D+00
  0.40000000D+02    0.30000000D+00    0.00000000D+00
  0.00000000D+00    0.40000001D+00    0.50000000D+01
  0.10000000D+01    0.40000001D+00    0.50000000D+01
  0.20000000D+01    0.40000001D+00    0.50000000D+01
  0.30000000D+01    0.40000001D+00    0.50000000D+01
  0.40000000D+01    0.40000001D+00    0.50000000D+01
  0.50000000D+01    0.40000001D+00    0.50000000D+01
  0.60000000D+01    0.40000001D+00    0.50000000D+01
  0.70000000D+01    0.40000001D+00    0.50000000D+01
  0.80000000D+01    0.40000001D+00    0.50000000D+01
  0.90000000D+01    0.40000001D+00    0.50000000D+01
  0.10000000D+02    0.40000001D+00    0.50000000D+01
  0.11000000D+02    0.40000001D+00    0.50000000D+01
  0.12000000D+02    0.40000001D+00    0.50000000D+01
  0.13000000D+02    0.40000001D+00    0.50000000D+01
  0.14000000D+02    0.40000001D+00    0.50000000D+01
  0.15000000D+02    0.40000001D+00    0.50000000D+01
  0.16000000D+02    0.40000001D+00    0.50000000D+01
  0.17000000D+02    0.40000001D+00    0.49990865D+01
  0.18000000D+02    0.40000001D+00    0.50231794D+01
  0.19000000D+02    0.40000001D+00    0.47824404D+01
  0.20000000D+02    0.40000001D+00    0.58489462D+01
  0.21000000D+02    0.40000001D+00    0.40091048D+01
  0.22000000D+02    0.40000001D+00    0.33698573D+00
  0.23000000D+02    0.40000001D+00    0.25700151D-03
  0.24000000D+02    0.40000001D+00    0.98890718D-12
  0.25000000D+02    0.40000001D+00    0.00000000D+00
  0.26000000D+02    0.40000001D+00    0.00000000D+00
  0.27000000D+02    0.40000001D+00    0.00000000D+00
  0.28000000D+02    0.40000001D+00    0.00000000D+00
  0.29000000D+02    0.40000001D+00    0.00000000D+00
  0.30000000D+02    0.40000001D+00    0.00000000D+00
  0.31000000D+02    0.40000001D+00    0.00000000D+00
  0.32000000D+02    0.40000001D+00    0.00000000D+00
  0.33000000D+02    0.40000001D+00    0.00000000D+00
  0.34000000D+02    0.40000001D+00    0.00000000D+00
  0.35000000D+02    0.40000001D+00    0.00000000D+00
  0.36000000D+02    0.40000001D+00    0.00000000D+00
  0.37000000D+02    0.40000001D+00    0.00000000D+00
  0.38000000D+02    0.40000001D+00    0.00000000D+00
  0.39000000D+02    0.40000001D+00    0.00000000D+00
  0.40000000D+02    0.40000001D+00    0.00000000D+00
  0.00000000D+00    0.50000001D+00    0.50000000D+01
  0.10000000D+01    0.50000001D+00    0.50000000D+01
  0.20000000D+01    0.50000001D+00    0.50000000D+01
  0.30000000D+01    0.50000001D+00    0.50000000D+01
  0.40000000D+01    0.50000001D+00    0.50000000D+01
  0.50000000D+01    0.50000001D+00    0.50000000D+01
  0.60000000D+01    0.50000001D+00    0.50000000D+01
  0.70000000D+01    0.50000001D+00    0.50000000D+01
  0.80000000D+01    0.50000001D+00    0.50000000D+01
  0.90000000D+01    0.50000001D+00    0.50000000D+01
  0.10000000D+02    0.50000001D+00    0.50000000D+01
  0.11000000D+02    0.50000001D+00    0.50000000D+01
  0.12000000D+02    0.50000001D+00    0.50000000D+01
  0.13000000D+02    0.50000001D+00    0.50000000D+01
  0.14000000D+02    0.50000001D+00    0.50000000D+01
  0.15000000D+02    0.50000001D+00    0.50000000D+01
  0.16000000D+02    0.50000001D+00    0.50001142D+01
  0.17000000D+02    0.50000001D+00    0.49964174D+01
  0.18000000D+02    0.50000001D+00    0.50441987D+01
  0.19000000D+02    0.50000001D+00    0.47376074D+01
  0.20000000D+02    0.50000001D+00    0.56447400D+01
  0.21000000D+02    0.50000001D+00    0.49983165D+01
  0.22000000D+02    0.50000001D+00    0.82546194D+00
  0.23000000D+02    0.50000001D+00    0.31438575D-02
  0.24000000D+02    0.50000001D+00    0.16522546D-08
  0.25000000D+02    0.50000001D+00    0.24448436D-25
  0.26000000D+02    0.50000001D+00    0.00000000D+00
  0.27000000D+02    0.50000001D+00    0.00000000D+00
  0.28000000D+02    0.50000001D+00    0.00000000D+00
  0.29000000D+02    0.50000001D+00    0.00000000D+00
  0.30000000D+02    0.50000001D+00    0.00000000D+00
  0.31000000D+02    0.50000001D+00    0.00000000D+00
  0.32000000D+02    0.50000001D+00    0.00000000D+00
  0.33000000D+02    0.50000001D+00    0.00000000D+00
  0.34000000D+02    0.50000001D+00    0.00000000D+00
  0.35000000D+02    0.50000001D+00    0.00000000D+00
  0.36000000D+02    0.50000001D+00    0.00000000D+00
  0.37000000D+02    0.50000001D+00    0.00000000D+00
  0.38000000D+02    0.50000001D+00    0.00000000D+00
  0.39000000D+02    0.50000001D+00    0.00000000D+00
  0.40000000D+02    0.50000001D+00    0.00000000D+00
  0.00000000D+00    0.60000001D+00    0.50000000D+01
  0.10000000D+01    0.60000001D+00    0.50000000D+01
  0.20000000D+01    0.60000001D+00    0.50000000D+01
  0.30000000D+01    0.60000001D+00    0.50000000D+01
  0.40000000D+01    0.60000001D+00    0.50000000D+01
  0.50000000D+01    0.60000001D+00    0.50000000D+01
  0.60000000D+01    0.60000001D+00    0.50000000D+01
  0.70000000D+01    0.60000001D+00    0.50000000D+01
  0.80000000D+01    0.60000001D+00    0.50000000D+01
  0.90000000D+01    0.60000001D+00    0.50000000D+01
  0.10000000D+02    0.60000001D+00    0.50000000D+01
  0.11000000D+02    0.60000001D+00    0.50000000D+01
  0.12000000D+02    0.60000001D+00    0.50000000D+01
  0.13000000D+02    0.60000001D+00    0.50000000D+01
  0.14000000D+02    0.60000001D+00    0.50000000D+01
  0.15000000D+02    0.60000001D+00    0.49999857D+01
  0.16000000D+02    0.60000001D+00    0.50005335D+01
  0.17000000D+02    0.60000001D+00    0.49918305D+01
  0.18000000D+02    0.60000001D+00    0.50644893D+01
  0.19000000D+02    0.60000001D+00    0.47360268D+01
  0.20000000D+02    0.60000001D+00    0.53675263D+01
  0.21000000D+02    0.60000001D+00    0.56924781D+01
  0.22000000D+02    0.60000001D+00    0.16262454D+01
  0.23000000D+02    0.60000001D+00    0.20884285D-01
  0.24000000D+02    0.60000001D+00    0.24878709D-06
  0.25000000D+02    0.60000001D+00    0.68248656D-19
  0.26000000D+02    0.60000001D+00    0.14943150D-52
  0.27000000D+02    0.60000001D+00    0.00000000D+00
  0.28000000D+02    0.60000001D+00    0.00000000D+00
  0.29000000D+02    0.60000001D+00    0.00000000D+00
  0.30000000D+02    0.60000001D+00    0.00000000D+00
  0.31000000D+02    0.60000001D+00    0.00000000D+00
  0.32000000D+02    0.60000001D+00    0.00000000D+00
  0.33000000D+02    0.60000001D+00    0.00000000D+00
  0.34000000D+02    0.60000001D+00    0.00000000D+00
  0.35000000D+02    0.60000001D+00    0.00000000D+00
  0.36000000D+02    0.60000001D+00    0.00000000D+00
  0.37000000D+02    0.60000001D+00    0.00000000D+00
  0.38000000D+02    0.60000001D+00    0.00000000D+00
  0.39000000D+02    0.60000001D+00    0.00000000D+00
  0.40000000D+02    0.60000001D+00    0.00000000D+00
  0.00000000D+00    0.70000001D+00    0.50000000D+01
  0.10000000D+01    0.70000001D+00    0.50000000D+01
  0.20000000D+01    0.70000001D+00    0.50000000D+01
  0.30000000D+01    0.70000001D+00    0.50000000D+01
  0.40000000D+01    0.70000001D+00    0.50000000D+01
  0.50000000D+01    0.70000001D+00    0.50000000D+01
  0.60000000D+01    0.70000001D+00    0.50000000D+01
  0.70000000D+01    0.70000001D+00    0.50000000D+01
  0.80000000D+01    0.70000001D+00    0.50000000D+01
  0.90000000D+01    0.70000001D+00    0.50000000D+01
  0.10000000D+02    0.70000001D+00    0.50000000D+01
  0.11000000D+02    0.70000001D+00    0.50000000D+01
  0.12000000D+02    0.70000001D+00    0.50000000D+01
  0.13000000D+02    0.70000001D+00    0.50000000D+01
  0.14000000D+02    0.70000001D+00    0.50000018D+01
  0.15000000D+02    0.70000001D+00    0.49999226D+01
  0.16000000D+02    0.70000001D+00    0.50014159D+01
  0.17000000D+02    0.70000001D+00    0.49860087D+01
  0.18000000D+02    0.70000001D+00    0.50780788D+01
  0.19000000D+02    0.70000001D+00    0.47770114D+01
  0.20000000D+02    0.70000001D+00    0.50872733D+01
  0.21000000D+02    0.70000001D+00    0.60246799D+01
  0.22000000D+02    0.70000001D+00    0.27031511D+01
  0.23000000D+02    0.70000001D+00    0.92445379D-01
  0.24000000D+02    0.70000001D+00    0.11164007D-04
  0.25000000D+02    0.70000001D+00    0.15474437D-14
  0.26000000D+02    0.70000001D+00    0.11644698D-39
  0.27000000D+02    0.70000001D+00    0.55824435-107
  0.28000000D+02    0.70000001D+00    0.00000000D+00
  0.29000000D+02    0.70000001D+00    0.00000000D+00
  0.30000000D+02    0.70000001D+00    0.00000000D+00
  0.31000000D+02    0.70000001D+00    0.00000000D+00
  0.32000000D+02    0.70000001D+00    0.00000000D+00
  0.33000000D+02    0.70000001D+00    0.00000000D+00
  0.34000000D+02    0.70000001D+00    0.00000000D+00
  0.35000000D+02    0.70000001D+00    0.00000000D+00
  0.36000000D+02    0.70000001D+00    0.00000000D+00
  0.37000000D+02    0.70000001D+00    0.00000000D+00
  0.38000000D+02    0.70000001D+00    0.00000000D+00
  0.39000000D+02    0.70000001D+00    0.00000000D+00
  0.40000000D+02    0.70000001D+00    0.00000000D+00
  0.00000000D+00    0.80000001D+00    0.50000000D+01
  0.10000000D+01    0.80000001D+00    0.50000000D+01
  0.20000000D+01    0.80000001D+00    0.50000000D+01
  0.30000000D+01    0.80000001D+00    0.50000000D+01
  0.40000000D+01    0.80000001D+00    0.50000000D+01
  0.50000000D+01    0.80000001D+00    0.50000000D+01
  0.60000000D+01    0.80000001D+00    0.50000000D+01
  0.70000000D+01    0.80000001D+00    0.50000000D+01
  0.80000000D+01    0.80000001D+00    0.50000000D+01
  0.90000000D+01    0.80000001D+00    0.50000000D+01
  0.10000000D+02    0.80000001D+00    0.50000000D+01
  0.11000000D+02    0.80000001D+00    0.50000000D+01
  0.12000000D+02    0.80000001D+00    0.50000000D+01
  0.13000000D+02    0.80000001D+00    0.49999998D+01
  0.14000000D+02    0.80000001D+00    0.50000110D+01
  0.15000000D+02    0.80000001D+00    0.49997656D+01
  0.16000000D+02    0.80000001D+00    0.50027817D+01
  0.17000000D+02    0.80000001D+00    0.49802685D+01
  0.18000000D+02    0.80000001D+00    0.50808826D+01
  0.19000000D+02    0.80000001D+00    0.48489626D+01
  0.20000000D+02    0.80000001D+00    0.48572963D+01
  0.21000000D+02    0.80000001D+00    0.60280576D+01
  0.22000000D+02    0.80000001D+00    0.39011241D+01
  0.23000000D+02    0.80000001D+00    0.30062454D+00
  0.24000000D+02    0.80000001D+00    0.22580540D-03
  0.25000000D+02    0.80000001D+00    0.31174255D-11
  0.26000000D+02    0.80000001D+00    0.59864553D-31
  0.27000000D+02    0.80000001D+00    0.33899747D-81
  0.28000000D+02    0.80000001D+00    0.77909190-216
  0.29000000D+02    0.80000001D+00    0.00000000D+00
  0.30000000D+02    0.80000001D+00    0.00000000D+00
  0.31000000D+02    0.80000001D+00    0.00000000D+00
  0.32000000D+02    0.80000001D+00    0.00000000D+00
  0.33000000D+02    0.80000001D+00    0.00000000D+00
  0.34000000D+02    0.80000001D+00    0.00000000D+00
  0.35000000D+02    0.80000001D+00    0.00000000D+00
  0.36000000D+02    0.80000001D+00    0.00000000D+00
  0.37000000D+02    0.80000001D+00    0.00000000D+00
  0.38000000D+02    0.80000001D+00    0.00000000D+00
  0.39000000D+02    0.80000001D+00    0.00000000D+00
  0.40000000D+02    0.80000001D+00    0.00000000D+00
  0.00000000D+00    0.90000001D+00    0.50000000D+01
  0.10000000D+01    0.90000001D+00    0.50000000D+01
  0.20000000D+01    0.90000001D+00    0.50000000D+01
  0.30000000D+01    0.90000001D+00    0.50000000D+01
  0.40000000D+01    0.90000001D+00    0.50000000D+01
  0.50000000D+01    0.90000001D+00    0.50000000D+01
  0.60000000D+01    0.90000001D+00    0.50000000D+01
  0.70000000D+01    0.90000001D+00    0.50000000D+01
  0.80000000D+01    0.90000001D+00    0.50000000D+01
  0.90000000D+01    0.90000001D+00    0.50000000D+01
  0.10000000D+02    0.90000001D+00    0.50000000D+01
  0.11000000D+02    0.90000001D+00    0.50000000D+01
  0.12000000D+02    0.90000001D+00    0.50000000D+01
  0.13000000D+02    0.90000001D+00    0.49999985D+01
  0.14000000D+02    0.90000001D+00    0.50000375D+01
  0.15000000D+02    0.90000001D+00    0.49994806D+01
  0.16000000D+02    0.90000001D+00    0.50044645D+01
  0.17000000D+02    0.90000001D+00    0.49761156D+01
  0.18000000D+02    0.90000001D+00    0.50718327D+01
  0.19000000D+02    0.90000001D+00    0.49340797D+01
  0.20000000D+02    0.90000001D+00    0.47090946D+01
  0.21000000D+02    0.90000001D+00    0.58019014D+01
  0.22000000D+02    0.90000001D+00    0.49899590D+01
  0.23000000D+02    0.90000001D+00    0.76051693D+00
  0.24000000D+02    0.90000001D+00    0.25191700D-02
  0.25000000D+02    0.90000001D+00    0.12778338D-08
  0.26000000D+02    0.90000001D+00    0.24295861D-24
  0.27000000D+02    0.90000001D+00    0.89594118D-64
  0.28000000D+02    0.90000001D+00    0.28729822-164
  0.29000000D+02    0.90000001D+00    0.00000000D+00
  0.30000000D+02    0.90000001D+00    0.00000000D+00
  0.31000000D+02    0.90000001D+00    0.00000000D+00
  0.32000000D+02    0.90000001D+00    0.00000000D+00
  0.33000000D+02    0.90000001D+00    0.00000000D+00
  0.34000000D+02    0.90000001D+00    0.00000000D+00
  0.35000000D+02    0.90000001D+00    0.00000000D+00
  0.36000000D+02    0.90000001D+00    0.00000000D+00
  0.37000000D+02    0.90000001D+00    0.00000000D+00
  0.38000000D+02    0.90000001D+00    0.00000000D+00
  0.39000000D+02    0.90000001D+00    0.00000000D+00
  0.40000000D+02    0.90000001D+00    0.00000000D+00
  0.00000000D+00    0.10000000D+01    0.50000000D+01
  0.10000000D+01    0.10000000D+01    0.50000000D+01
  0.20000000D+01    0.10000000D+01    0.50000000D+01
  0.30000000D+01    0.10000000D+01    0.50000000D+01
  0.40000000D+01    0.10000000D+01    0.50000000D+01
  0.50000000D+01    0.10000000D+01    0.50000000D+01
  0.60000000D+01    0.10000000D+01    0.50000000D+01
  0.70000000D+01    0.10000000D+01    0.50000000D+01
  0.80000000D+01    0.10000000D+01    0.50000000D+01
  0.90000000D+01    0.10000000D+01    0.50000000D+01
  0.10000000D+02    0.10000000D+01    0.50000000D+01
  0.11000000D+02    0.10000000D+01    0.50000000D+01
  0.12000000D+02    0.10000000D+01    0.50000002D+01
  0.13000000D+02    0.10000000D+01    0.49999942D+01
  0.14000000D+02    0.10000000D+01    0.50000924D+01
  0.15000000D+02    0.10000000D+01    0.49990665D+01
  0.16000000D+02    0.10000000D+01    0.50061381D+01
  0.17000000D+02    0.10000000D+01    0.49747545D+01
  0.18000000D+02    0.10000000D+01    0.50529282D+01
  0.19000000D+02    0.10000000D+01    0.50138652D+01
  0.20000000D+02    0.10000000D+01    0.46532417D+01
  0.21000000D+02    0.10000000D+01    0.54646776D+01
  0.22000000D+02    0.10000000D+01    0.57604298D+01
  0.23000000D+02    0.10000000D+01    0.15572812D+01
  0.24000000D+02    0.10000000D+01    0.17530476D-01
  0.25000000D+02    0.10000000D+01    0.15995326D-06
  0.26000000D+02    0.10000000D+01    0.40821723D-19
  0.27000000D+02    0.10000000D+01    0.14757222D-50
  0.28000000D+02    0.10000000D+01    0.20067765-129
  0.29000000D+02    0.10000000D+01    0.00000000D+00
  0.30000000D+02    0.10000000D+01    0.00000000D+00
  0.31000000D+02    0.10000000D+01    0.00000000D+00
  0.32000000D+02    0.10000000D+01    0.00000000D+00
  0.33000000D+02    0.10000000D+01    0.00000000D+00
  0.34000000D+02    0.10000000D+01    0.00000000D+00
  0.35000000D+02    0.10000000D+01    0.00000000D+00
  0.36000000D+02    0.10000000D+01    0.00000000D+00
  0.37000000D+02    0.10000000D+01    0.00000000D+00
  0.38000000D+02    0.10000000D+01    0.00000000D+00
  0.39000000D+02    0.10000000D+01    0.00000000D+00
  0.40000000D+02    0.10000000D+01    0.00000000D+00
  0.00000000D+00    0.11000000D+01    0.50000000D+01
  0.10000000D+01    0.11000000D+01    0.50000000D+01
  0.20000000D+01    0.11000000D+01    0.50000000D+01
  0.30000000D+01    0.11000000D+01    0.50000000D+01
  0.40000000D+01    0.11000000D+01    0.50000000D+01
  0.50000000D+01    0.11000000D+01    0.50000000D+01
  0.60000000D+01    0.11000000D+01    0.50000000D+01
  0.70000000D+01    0.11000000D+01    0.50000000D+01
  0.80000000D+01    0.11000000D+01    0.50000000D+01
  0.90000000D+01    0.11000000D+01    0.50000000D+01
  0.10000000D+02    0.11000000D+01    0.50000000D+01
  0.11000000D+02    0.11000000D+01    0.50000000D+01
  0.12000000D+02    0.11000000D+01    0.50000009D+01
  0.13000000D+02    0.11000000D+01    0.49999842D+01
  0.14000000D+02    0.11000000D+01    0.50001838D+01
  0.15000000D+02    0.11000000D+01    0.49985672D+01
  0.16000000D+02    0.11000000D+01    0.50074074D+01
  0.17000000D+02    0.11000000D+01    0.49767218D+01
  0.18000000D+02    0.11000000D+01    0.50283874D+01
  0.19000000D+02    0.11000000D+01    0.50736724D+01
  0.20000000D+02    0.11000000D+01    0.46811076D+01
  0.21000000D+02    0.11000000D+01    0.51191766D+01
  0.22000000D+02    0.11000000D+01    0.61184447D+01
  0.23000000D+02    0.11000000D+01    0.26634065D+01
  0.24000000D+02    0.11000000D+01    0.82931880D-01
  0.25000000D+02    0.11000000D+01    0.78496275D-05
  0.26000000D+02    0.11000000D+01    0.63966698D-15
  0.27000000D+02    0.11000000D+01    0.41660327D-40
  0.28000000D+02    0.11000000D+01    0.54443898-103
  0.29000000D+02    0.11000000D+01    0.10067880-260
  0.30000000D+02    0.11000000D+01    0.00000000D+00
  0.31000000D+02    0.11000000D+01    0.00000000D+00
  0.32000000D+02    0.11000000D+01    0.00000000D+00
  0.33000000D+02    0.11000000D+01    0.00000000D+00
  0.34000000D+02    0.11000000D+01    0.00000000D+00
  0.35000000D+02    0.11000000D+01    0.00000000D+00
  0.36000000D+02    0.11000000D+01    0.00000000D+00
  0.37000000D+02    0.11000000D+01    0.00000000D+00
  0.38000000D+02    0.11000000D+01    0.00000000D+00
  0.39000000D+02    0.11000000D+01    0.00000000D+00
  0.40000000D+02    0.11000000D+01    0.00000000D+00
  0.00000000D+00    0.12000000D+01    0.50000000D+01
  0.10000000D+01    0.12000000D+01    0.50000000D+01
  0.20000000D+01    0.12000000D+01    0.50000000D+01
  0.30000000D+01    0.12000000D+01    0.50000000D+01
  0.40000000D+01    0.12000000D+01    0.50000000D+01
  0.50000000D+01    0.12000000D+01    0.50000000D+01
  0.60000000D+01    0.12000000D+01    0.50000000D+01
  0.70000000D+01    0.12000000D+01    0.50000000D+01
  0.80000000D+01    0.12000000D+01    0.50000000D+01
  0.90000000D+01    0.12000000D+01    0.50000000D+01
  0.10000000D+02    0.12000000D+01    0.50000000D+01
  0.11000000D+02    0.12000000D+01    0.49999999D+01
  0.12000000D+02    0.12000000D+01    0.50000026D+01
  0.13000000D+02    0.12000000D+01    0.49999655D+01
  0.14000000D+02    0.12000000D+01    0.50003110D+01
  0.15000000D+02    0.12000000D+01    0.49980683D+01
  0.16000000D+02    0.12000000D+01    0.50079253D+01
  0.17000000D+02    0.12000000D+01    0.49817463D+01
  0.18000000D+02    0.12000000D+01    0.50033396D+01
  0.19000000D+02    0.12000000D+01    0.51055000D+01
  0.20000000D+02    0.12000000D+01    0.47687989D+01
  0.21000000D+02    0.12000000D+01    0.48362581D+01
  0.22000000D+02    0.12000000D+01    0.61054413D+01
  0.23000000D+02    0.12000000D+01    0.39078597D+01
  0.24000000D+02    0.12000000D+01    0.28460316D+00
  0.25000000D+02    0.12000000D+01    0.18050509D-03
  0.26000000D+02    0.12000000D+01    0.15410566D-11
  0.27000000D+02    0.12000000D+01    0.10229346D-31
  0.28000000D+02    0.12000000D+01    0.43389572D-82
  0.29000000D+02    0.12000000D+01    0.74103453-208
  0.30000000D+02    0.12000000D+01    0.00000000D+00
  0.31000000D+02    0.12000000D+01    0.00000000D+00
  0.32000000D+02    0.12000000D+01    0.00000000D+00
  0.33000000D+02    0.12000000D+01    0.00000000D+00
  0.34000000D+02    0.12000000D+01    0.00000000D+00
  0.35000000D+02    0.12000000D+01    0.00000000D+00
  0.36000000D+02    0.12000000D+01    0.00000000D+00
  0.37000000D+02    0.12000000D+01    0.00000000D+00
  0.38000000D+02    0.12000000D+01    0.00000000D+00
  0.39000000D+02    0.12000000D+01    0.00000000D+00
  0.40000000D+02    0.12000000D+01    0.00000000D+00
  0.00000000D+00    0.13000000D+01    0.50000000D+01
  0.10000000D+01    0.13000000D+01    0.50000000D+01
  0.20000000D+01    0.13000000D+01    0.50000000D+01
  0.30000000D+01    0.13000000D+01    0.50000000D+01
  0.40000000D+01    0.13000000D+01    0.50000000D+01
  0.50000000D+01    0.13000000D+01    0.50000000D+01
  0.60000000D+01    0.13000000D+01    0.50000000D+01
  0.70000000D+01    0.13000000D+01    0.50000000D+01
  0.80000000D+01    0.13000000D+01    0.50000000D+01
  0.90000000D+01    0.13000000D+01    0.50000000D+01
  0.10000000D+02    0.13000000D+01    0.50000000D+01
  0.11000000D+02    0.13000000D+01    0.49999996D+01
  0.12000000D+02    0.13000000D+01    0.50000062D+01
  0.13000000D+02    0.13000000D+01    0.49999362D+01
  0.14000000D+02    0.13000000D+01    0.50004618D+01
  0.15000000D+02    0.13000000D+01    0.49976770D+01
  0.16000000D+02    0.13000000D+01    0.50074984D+01
  0.17000000D+02    0.13000000D+01    0.49888508D+01
  0.18000000D+02    0.13000000D+01    0.49824897D+01
  0.19000000D+02    0.13000000D+01    0.51087133D+01
  0.20000000D+02    0.13000000D+01    0.48845330D+01
  0.21000000D+02    0.13000000D+01    0.46550389D+01
  0.22000000D+02    0.13000000D+01    0.58430285D+01
  0.23000000D+02    0.13000000D+01    0.50335677D+01
  0.24000000D+02    0.13000000D+01    0.74596484D+00
  0.25000000D+02    0.13000000D+01    0.22343131D-02
  0.26000000D+02    0.13000000D+01    0.81610063D-09
  0.27000000D+02    0.13000000D+01    0.59371398D-25
  0.28000000D+02    0.13000000D+01    0.26159883D-65
  0.29000000D+02    0.13000000D+01    0.47066374-166
  0.30000000D+02    0.13000000D+01    0.00000000D+00