 title= "nonlinear solution"
 variables= "x", "t", "u" 
 zone F=point, I=          41 J=          13
  0.00000000D+00    0.00000000D+00    0.00000000D+00
  0.10000000D+01    0.00000000D+00    0.00000000D+00
  0.20000000D+01    0.00000000D+00    0.00000000D+00
  0.30000000D+01    0.00000000D+00    0.00000000D+00
  0.40000000D+01    0.00000000D+00    0.00000000D+00
  0.50000000D+01    0.00000000D+00    0.00000000D+00
  0.60000000D+01    0.00000000D+00    0.00000000D+00
  0.70000000D+01    0.00000000D+00    0.00000000D+00
  0.80000000D+01    0.00000000D+00    0.00000000D+00
  0.90000000D+01    0.00000000D+00    0.00000000D+00
  0.10000000D+02    0.00000000D+00    0.00000000D+00
  0.11000000D+02    0.00000000D+00    0.00000000D+00
  0.12000000D+02    0.00000000D+00    0.00000000D+00
  0.13000000D+02    0.00000000D+00    0.00000000D+00
  0.14000000D+02    0.00000000D+00    0.00000000D+00
  0.15000000D+02    0.00000000D+00    0.00000000D+00
  0.16000000D+02    0.00000000D+00    0.00000000D+00
  0.17000000D+02    0.00000000D+00    0.00000000D+00
  0.18000000D+02    0.00000000D+00    0.00000000D+00
  0.19000000D+02    0.00000000D+00    0.00000000D+00
  0.20000000D+02    0.00000000D+00    0.00000000D+00
  0.21000000D+02    0.00000000D+00    0.00000000D+00
  0.22000000D+02    0.00000000D+00    0.00000000D+00
  0.23000000D+02    0.00000000D+00    0.00000000D+00
  0.24000000D+02    0.00000000D+00    0.00000000D+00
  0.25000000D+02    0.00000000D+00    0.00000000D+00
  0.26000000D+02    0.00000000D+00    0.00000000D+00
  0.27000000D+02    0.00000000D+00    0.00000000D+00
  0.28000000D+02    0.00000000D+00    0.00000000D+00
  0.29000000D+02    0.00000000D+00    0.00000000D+00
  0.30000000D+02    0.00000000D+00    0.00000000D+00
  0.31000000D+02    0.00000000D+00    0.00000000D+00
  0.32000000D+02    0.00000000D+00    0.00000000D+00
  0.33000000D+02    0.00000000D+00    0.00000000D+00
  0.34000000D+02    0.00000000D+00    0.00000000D+00
  0.35000000D+02    0.00000000D+00    0.00000000D+00
  0.36000000D+02    0.00000000D+00    0.00000000D+00
  0.37000000D+02    0.00000000D+00    0.00000000D+00
  0.38000000D+02    0.00000000D+00    0.00000000D+00
  0.39000000D+02    0.00000000D+00    0.00000000D+00
  0.40000000D+02    0.00000000D+00    0.00000000D+00
  0.00000000D+00    0.20000000D+00    0.50000000D+01
  0.10000000D+01    0.20000000D+00    0.50000000D+01
  0.20000000D+01    0.20000000D+00    0.50000000D+01
  0.30000000D+01    0.20000000D+00    0.50000000D+01
  0.40000000D+01    0.20000000D+00    0.50000000D+01
  0.50000000D+01    0.20000000D+00    0.50000000D+01
  0.60000000D+01    0.20000000D+00    0.50000000D+01
  0.70000000D+01    0.20000000D+00    0.50000000D+01
  0.80000000D+01    0.20000000D+00    0.50000000D+01
  0.90000000D+01    0.20000000D+00    0.50000000D+01
  0.10000000D+02    0.20000000D+00    0.50000000D+01
  0.11000000D+02    0.20000000D+00    0.50000000D+01
  0.12000000D+02    0.20000000D+00    0.50000000D+01
  0.13000000D+02    0.20000000D+00    0.50000000D+01
  0.14000000D+02    0.20000000D+00    0.50000000D+01
  0.15000000D+02    0.20000000D+00    0.50000000D+01
  0.16000000D+02    0.20000000D+00    0.50000000D+01
  0.17000000D+02    0.20000000D+00    0.50000000D+01
  0.18000000D+02    0.20000000D+00    0.50000000D+01
  0.19000000D+02    0.20000000D+00    0.50000000D+01
  0.20000000D+02    0.20000000D+00    0.46875000D+01
  0.21000000D+02    0.20000000D+00    0.28125001D+01
  0.22000000D+02    0.20000000D+00    0.00000000D+00
  0.23000000D+02    0.20000000D+00    0.00000000D+00
  0.24000000D+02    0.20000000D+00    0.00000000D+00
  0.25000000D+02    0.20000000D+00    0.00000000D+00
  0.26000000D+02    0.20000000D+00    0.00000000D+00
  0.27000000D+02    0.20000000D+00    0.00000000D+00
  0.28000000D+02    0.20000000D+00    0.00000000D+00
  0.29000000D+02    0.20000000D+00    0.00000000D+00
  0.30000000D+02    0.20000000D+00    0.00000000D+00
  0.31000000D+02    0.20000000D+00    0.00000000D+00
  0.32000000D+02    0.20000000D+00    0.00000000D+00
  0.33000000D+02    0.20000000D+00    0.00000000D+00
  0.34000000D+02    0.20000000D+00    0.00000000D+00
  0.35000000D+02    0.20000000D+00    0.00000000D+00
  0.36000000D+02    0.20000000D+00    0.00000000D+00
  0.37000000D+02    0.20000000D+00    0.00000000D+00
  0.38000000D+02    0.20000000D+00    0.00000000D+00
  0.39000000D+02    0.20000000D+00    0.00000000D+00
  0.40000000D+02    0.20000000D+00    0.00000000D+00
  0.00000000D+00    0.40000001D+00    0.50000000D+01
  0.10000000D+01    0.40000001D+00    0.50000000D+01
  0.20000000D+01    0.40000001D+00    0.50000000D+01
  0.30000000D+01    0.40000001D+00    0.50000000D+01
  0.40000000D+01    0.40000001D+00    0.50000000D+01
  0.50000000D+01    0.40000001D+00    0.50000000D+01
  0.60000000D+01    0.40000001D+00    0.50000000D+01
  0.70000000D+01    0.40000001D+00    0.50000000D+01
  0.80000000D+01    0.40000001D+00    0.50000000D+01
  0.90000000D+01    0.40000001D+00    0.50000000D+01
  0.10000000D+02    0.40000001D+00    0.50000000D+01
  0.11000000D+02    0.40000001D+00    0.50000000D+01
  0.12000000D+02    0.40000001D+00    0.50000000D+01
  0.13000000D+02    0.40000001D+00    0.50000000D+01
  0.14000000D+02    0.40000001D+00    0.50000000D+01
  0.15000000D+02    0.40000001D+00    0.50000000D+01
  0.16000000D+02    0.40000001D+00    0.50000000D+01
  0.17000000D+02    0.40000001D+00    0.50000000D+01
  0.18000000D+02    0.40000001D+00    0.50000000D+01
  0.19000000D+02    0.40000001D+00    0.49954176D+01
  0.20000000D+02    0.40000001D+00    0.49398851D+01
  0.21000000D+02    0.40000001D+00    0.44154310D+01
  0.22000000D+02    0.40000001D+00    0.64926630D+00
  0.23000000D+02    0.40000001D+00    0.00000000D+00
  0.24000000D+02    0.40000001D+00    0.00000000D+00
  0.25000000D+02    0.40000001D+00    0.00000000D+00
  0.26000000D+02    0.40000001D+00    0.00000000D+00
  0.27000000D+02    0.40000001D+00    0.00000000D+00
  0.28000000D+02    0.40000001D+00    0.00000000D+00
  0.29000000D+02    0.40000001D+00    0.00000000D+00
  0.30000000D+02    0.40000001D+00    0.00000000D+00
  0.31000000D+02    0.40000001D+00    0.00000000D+00
  0.32000000D+02    0.40000001D+00    0.00000000D+00
  0.33000000D+02    0.40000001D+00    0.00000000D+00
  0.34000000D+02    0.40000001D+00    0.00000000D+00
  0.35000000D+02    0.40000001D+00    0.00000000D+00
  0.36000000D+02    0.40000001D+00    0.00000000D+00
  0.37000000D+02    0.40000001D+00    0.00000000D+00
  0.38000000D+02    0.40000001D+00    0.00000000D+00
  0.39000000D+02    0.40000001D+00    0.00000000D+00
  0.40000000D+02    0.40000001D+00    0.00000000D+00
  0.00000000D+00    0.60000001D+00    0.50000000D+01
  0.10000000D+01    0.60000001D+00    0.50000000D+01
  0.20000000D+01    0.60000001D+00    0.50000000D+01
  0.30000000D+01    0.60000001D+00    0.50000000D+01
  0.40000000D+01    0.60000001D+00    0.50000000D+01
  0.50000000D+01    0.60000001D+00    0.50000000D+01
  0.60000000D+01    0.60000001D+00    0.50000000D+01
  0.70000000D+01    0.60000001D+00    0.50000000D+01
  0.80000000D+01    0.60000001D+00    0.50000000D+01
  0.90000000D+01    0.60000001D+00    0.50000000D+01
  0.10000000D+02    0.60000001D+00    0.50000000D+01
  0.11000000D+02    0.60000001D+00    0.50000000D+01
  0.12000000D+02    0.60000001D+00    0.50000000D+01
  0.13000000D+02    0.60000001D+00    0.50000000D+01
  0.14000000D+02    0.60000001D+00    0.50000000D+01
  0.15000000D+02    0.60000001D+00    0.50000000D+01
  0.16000000D+02    0.60000001D+00    0.50000000D+01
  0.17000000D+02    0.60000001D+00    0.50000000D+01
  0.18000000D+02    0.60000001D+00    0.49999990D+01
  0.19000000D+02    0.60000001D+00    0.49998720D+01
  0.20000000D+02    0.60000001D+00    0.49860982D+01
  0.21000000D+02    0.60000001D+00    0.48447470D+01
  0.22000000D+02    0.60000001D+00    0.26453808D+01
  0.23000000D+02    0.60000001D+00    0.23903148D-01
  0.24000000D+02    0.60000001D+00    0.00000000D+00
  0.25000000D+02    0.60000001D+00    0.00000000D+00
  0.26000000D+02    0.60000001D+00    0.00000000D+00
  0.27000000D+02    0.60000001D+00    0.00000000D+00
  0.28000000D+02    0.60000001D+00    0.00000000D+00
  0.29000000D+02    0.60000001D+00    0.00000000D+00
  0.30000000D+02    0.60000001D+00    0.00000000D+00
  0.31000000D+02    0.60000001D+00    0.00000000D+00
  0.32000000D+02    0.60000001D+00    0.00000000D+00
  0.33000000D+02    0.60000001D+00    0.00000000D+00
  0.34000000D+02    0.60000001D+00    0.00000000D+00
  0.35000000D+02    0.60000001D+00    0.00000000D+00
  0.36000000D+02    0.60000001D+00    0.00000000D+00
  0.37000000D+02    0.60000001D+00    0.00000000D+00
  0.38000000D+02    0.60000001D+00    0.00000000D+00
  0.39000000D+02    0.60000001D+00    0.00000000D+00
  0.40000000D+02    0.60000001D+00    0.00000000D+00
  0.00000000D+00    0.80000001D+00    0.50000000D+01
  0.10000000D+01    0.80000001D+00    0.50000000D+01
  0.20000000D+01    0.80000001D+00    0.50000000D+01
  0.30000000D+01    0.80000001D+00    0.50000000D+01
  0.40000000D+01    0.80000001D+00    0.50000000D+01
  0.50000000D+01    0.80000001D+00    0.50000000D+01
  0.60000000D+01    0.80000001D+00    0.50000000D+01
  0.70000000D+01    0.80000001D+00    0.50000000D+01
  0.80000000D+01    0.80000001D+00    0.50000000D+01
  0.90000000D+01    0.80000001D+00    0.50000000D+01
  0.10000000D+02    0.80000001D+00    0.50000000D+01
  0.11000000D+02    0.80000001D+00    0.50000000D+01
  0.12000000D+02    0.80000001D+00    0.50000000D+01
  0.13000000D+02    0.80000001D+00    0.50000000D+01
  0.14000000D+02    0.80000001D+00    0.50000000D+01
  0.15000000D+02    0.80000001D+00    0.50000000D+01
  0.16000000D+02    0.80000001D+00    0.50000000D+01
  0.17000000D+02    0.80000001D+00    0.50000000D+01
  0.18000000D+02    0.80000001D+00    0.50000000D+01
  0.19000000D+02    0.80000001D+00    0.49999897D+01
  0.20000000D+02    0.80000001D+00    0.49990897D+01
  0.21000000D+02    0.80000001D+00    0.48743664D+01
  0.22000000D+02    0.80000001D+00    0.45431287D+01
  0.23000000D+02    0.80000001D+00    0.58339696D+00
  0.24000000D+02    0.80000001D+00    0.28704761D-04
  0.25000000D+02    0.80000001D+00    0.00000000D+00
  0.26000000D+02    0.80000001D+00    0.00000000D+00
  0.27000000D+02    0.80000001D+00    0.00000000D+00
  0.28000000D+02    0.80000001D+00    0.00000000D+00
  0.29000000D+02    0.80000001D+00    0.00000000D+00
  0.30000000D+02    0.80000001D+00    0.00000000D+00
  0.31000000D+02    0.80000001D+00    0.00000000D+00
  0.32000000D+02    0.80000001D+00    0.00000000D+00
  0.33000000D+02    0.80000001D+00    0.00000000D+00
  0.34000000D+02    0.80000001D+00    0.00000000D+00
  0.35000000D+02    0.80000001D+00    0.00000000D+00
  0.36000000D+02    0.80000001D+00    0.00000000D+00
  0.37000000D+02    0.80000001D+00    0.00000000D+00
  0.38000000D+02    0.80000001D+00    0.00000000D+00
  0.39000000D+02    0.80000001D+00    0.00000000D+00
  0.40000000D+02    0.80000001D+00    0.00000000D+00
  0.00000000D+00    0.10000000D+01    0.50000000D+01
  0.10000000D+01    0.10000000D+01    0.50000000D+01
  0.20000000D+01    0.10000000D+01    0.50000000D+01
  0.30000000D+01    0.10000000D+01    0.50000000D+01
  0.40000000D+01    0.10000000D+01    0.50000000D+01
  0.50000000D+01    0.10000000D+01    0.50000000D+01
  0.60000000D+01    0.10000000D+01    0.50000000D+01
  0.70000000D+01    0.10000000D+01    0.50000000D+01
  0.80000000D+01    0.10000000D+01    0.50000000D+01
  0.90000000D+01    0.10000000D+01    0.50000000D+01
  0.10000000D+02    0.10000000D+01    0.50000000D+01
  0.11000000D+02    0.10000000D+01    0.50000000D+01
  0.12000000D+02    0.10000000D+01    0.50000000D+01
  0.13000000D+02    0.10000000D+01    0.50000000D+01
  0.14000000D+02    0.10000000D+01    0.50000000D+01
  0.15000000D+02    0.10000000D+01    0.50000000D+01
  0.16000000D+02    0.10000000D+01    0.50000000D+01
  0.17000000D+02    0.10000000D+01    0.50000000D+01
  0.18000000D+02    0.10000000D+01    0.50000000D+01
  0.19000000D+02    0.10000000D+01    0.50000000D+01
  0.20000000D+02    0.10000000D+01    0.49992426D+01
  0.21000000D+02    0.10000000D+01    0.49973120D+01
  0.22000000D+02    0.10000000D+01    0.47427232D+01
  0.23000000D+02    0.10000000D+01    0.27416326D+01
  0.24000000D+02    0.10000000D+01    0.19089829D-01
  0.25000000D+02    0.10000000D+01    0.41198404D-10
  0.26000000D+02    0.10000000D+01    0.00000000D+00
  0.27000000D+02    0.10000000D+01    0.00000000D+00
  0.28000000D+02    0.10000000D+01    0.00000000D+00
  0.29000000D+02    0.10000000D+01    0.00000000D+00
  0.30000000D+02    0.10000000D+01    0.00000000D+00
  0.31000000D+02    0.10000000D+01    0.00000000D+00
  0.32000000D+02    0.10000000D+01    0.00000000D+00
  0.33000000D+02    0.10000000D+01    0.00000000D+00
  0.34000000D+02    0.10000000D+01    0.00000000D+00
  0.35000000D+02    0.10000000D+01    0.00000000D+00
  0.36000000D+02    0.10000000D+01    0.00000000D+00
  0.37000000D+02    0.10000000D+01    0.00000000D+00
  0.38000000D+02    0.10000000D+01    0.00000000D+00
  0.39000000D+02    0.10000000D+01    0.00000000D+00
  0.40000000D+02    0.10000000D+01    0.00000000D+00
  0.00000000D+00    0.12000000D+01    0.50000000D+01
  0.10000000D+01    0.12000000D+01    0.50000000D+01
  0.20000000D+01    0.12000000D+01    0.50000000D+01
  0.30000000D+01    0.12000000D+01    0.50000000D+01
  0.40000000D+01    0.12000000D+01    0.50000000D+01
  0.50000000D+01    0.12000000D+01    0.50000000D+01
  0.60000000D+01    0.12000000D+01    0.50000000D+01
  0.70000000D+01    0.12000000D+01    0.50000000D+01
  0.80000000D+01    0.12000000D+01    0.50000000D+01
  0.90000000D+01    0.12000000D+01    0.50000000D+01
  0.10000000D+02    0.12000000D+01    0.50000000D+01
  0.11000000D+02    0.12000000D+01    0.50000000D+01
  0.12000000D+02    0.12000000D+01    0.50000000D+01
  0.13000000D+02    0.12000000D+01    0.50000000D+01
  0.14000000D+02    0.12000000D+01    0.50000000D+01
  0.15000000D+02    0.12000000D+01    0.50000000D+01
  0.16000000D+02    0.12000000D+01    0.50000000D+01
  0.17000000D+02    0.12000000D+01    0.50000000D+01
  0.18000000D+02    0.12000000D+01    0.50000000D+01
  0.19000000D+02    0.12000000D+01    0.50000000D+01
  0.20000000D+02    0.12000000D+01    0.49999999D+01
  0.21000000D+02    0.12000000D+01    0.49962342D+01
  0.22000000D+02    0.12000000D+01    0.49200801D+01
  0.23000000D+02    0.12000000D+01    0.44544379D+01
  0.24000000D+02    0.12000000D+01    0.62922993D+00
  0.25000000D+02    0.12000000D+01    0.18290753D-04
  0.26000000D+02    0.12000000D+01    0.84865425D-22
  0.27000000D+02    0.12000000D+01    0.00000000D+00
  0.28000000D+02    0.12000000D+01    0.00000000D+00
  0.29000000D+02    0.12000000D+01    0.00000000D+00
  0.30000000D+02    0.12000000D+01    0.00000000D+00
  0.31000000D+02    0.12000000D+01    0.00000000D+00
  0.32000000D+02    0.12000000D+01    0.00000000D+00
  0.33000000D+02    0.12000000D+01    0.00000000D+00
  0.34000000D+02    0.12000000D+01    0.00000000D+00
  0.35000000D+02    0.12000000D+01    0.00000000D+00
  0.36000000D+02    0.12000000D+01    0.00000000D+00
  0.37000000D+02    0.12000000D+01    0.00000000D+00
  0.38000000D+02    0.12000000D+01    0.00000000D+00
  0.39000000D+02    0.12000000D+01    0.00000000D+00
  0.40000000D+02    0.12000000D+01    0.00000000D+00
  0.00000000D+00    0.14000000D+01    0.50000000D+01
  0.10000000D+01    0.14000000D+01    0.50000000D+01
  0.20000000D+01    0.14000000D+01    0.50000000D+01
  0.30000000D+01    0.14000000D+01    0.50000000D+01
  0.40000000D+01    0.14000000D+01    0.50000000D+01
  0.50000000D+01    0.14000000D+01    0.50000000D+01
  0.60000000D+01    0.14000000D+01    0.50000000D+01
  0.70000000D+01    0.14000000D+01    0.50000000D+01
  0.80000000D+01    0.14000000D+01    0.50000000D+01
  0.90000000D+01    0.14000000D+01    0.50000000D+01
  0.10000000D+02    0.14000000D+01    0.50000000D+01
  0.11000000D+02    0.14000000D+01    0.50000000D+01
  0.12000000D+02    0.14000000D+01    0.50000000D+01
  0.13000000D+02    0.14000000D+01    0.50000000D+01
  0.14000000D+02    0.14000000D+01    0.50000000D+01
  0.15000000D+02    0.14000000D+01    0.50000000D+01
  0.16000000D+02    0.14000000D+01    0.50000000D+01
  0.17000000D+02    0.14000000D+01    0.50000000D+01
  0.18000000D+02    0.14000000D+01    0.50000000D+01
  0.19000000D+02    0.14000000D+01    0.50000000D+01
  0.20000000D+02    0.14000000D+01    0.49999993D+01
  0.21000000D+02    0.14000000D+01    0.49997425D+01
  0.22000000D+02    0.14000000D+01    0.49898148D+01
  0.23000000D+02    0.14000000D+01    0.48140090D+01
  0.24000000D+02    0.14000000D+01    0.26740502D+01
  0.25000000D+02    0.14000000D+01    0.22384499D-01
  0.26000000D+02    0.14000000D+01    0.16727644D-10
  0.27000000D+02    0.14000000D+01    0.36010702D-45
  0.28000000D+02    0.14000000D+01    0.00000000D+00
  0.29000000D+02    0.14000000D+01    0.00000000D+00
  0.30000000D+02    0.14000000D+01    0.00000000D+00
  0.31000000D+02    0.14000000D+01    0.00000000D+00
  0.32000000D+02    0.14000000D+01    0.00000000D+00
  0.33000000D+02    0.14000000D+01    0.00000000D+00
  0.34000000D+02    0.14000000D+01    0.00000000D+00
  0.35000000D+02    0.14000000D+01    0.00000000D+00
  0.36000000D+02    0.14000000D+01    0.00000000D+00
  0.37000000D+02    0.14000000D+01    0.00000000D+00
  0.38000000D+02    0.14000000D+01    0.00000000D+00
  0.39000000D+02    0.14000000D+01    0.00000000D+00
  0.40000000D+02    0.14000000D+01    0.00000000D+00
  0.00000000D+00    0.16000000D+01    0.50000000D+01
  0.10000000D+01    0.16000000D+01    0.50000000D+01
  0.20000000D+01    0.16000000D+01    0.50000000D+01
  0.30000000D+01    0.16000000D+01    0.50000000D+01
  0.40000000D+01    0.16000000D+01    0.50000000D+01
  0.50000000D+01    0.16000000D+01    0.50000000D+01
  0.60000000D+01    0.16000000D+01    0.50000000D+01
  0.70000000D+01    0.16000000D+01    0.50000000D+01
  0.80000000D+01    0.16000000D+01    0.50000000D+01
  0.90000000D+01    0.16000000D+01    0.50000000D+01
  0.10000000D+02    0.16000000D+01    0.50000000D+01
  0.11000000D+02    0.16000000D+01    0.50000000D+01
  0.12000000D+02    0.16000000D+01    0.50000000D+01
  0.13000000D+02    0.16000000D+01    0.50000000D+01
  0.14000000D+02    0.16000000D+01    0.50000000D+01
  0.15000000D+02    0.16000000D+01    0.50000000D+01
  0.16000000D+02    0.16000000D+01    0.50000000D+01
  0.17000000D+02    0.16000000D+01    0.50000000D+01
  0.18000000D+02    0.16000000D+01    0.50000000D+01
  0.19000000D+02    0.16000000D+01    0.50000000D+01
  0.20000000D+02    0.16000000D+01    0.50000000D+01
  0.21000000D+02    0.16000000D+01    0.49999946D+01
  0.22000000D+02    0.16000000D+01    0.49984270D+01
  0.23000000D+02    0.16000000D+01    0.48890927D+01
  0.24000000D+02    0.16000000D+01    0.45157920D+01
  0.25000000D+02    0.16000000D+01    0.59666891D+00
  0.26000000D+02    0.16000000D+01    0.25165594D-04
  0.27000000D+02    0.16000000D+01    0.13990704D-22
  0.28000000D+02    0.16000000D+01    0.64838534D-92
  0.29000000D+02    0.16000000D+01    0.00000000D+00
  0.30000000D+02    0.16000000D+01    0.00000000D+00
  0.31000000D+02    0.16000000D+01    0.00000000D+00
  0.32000000D+02    0.16000000D+01    0.00000000D+00
  0.33000000D+02    0.16000000D+01    0.00000000D+00
  0.34000000D+02    0.16000000D+01    0.00000000D+00
  0.35000000D+02    0.16000000D+01    0.00000000D+00
  0.36000000D+02    0.16000000D+01    0.00000000D+00
  0.37000000D+02    0.16000000D+01    0.00000000D+00
  0.38000000D+02    0.16000000D+01    0.00000000D+00
  0.39000000D+02    0.16000000D+01    0.00000000D+00
  0.40000000D+02    0.16000000D+01    0.00000000D+00
  0.00000000D+00    0.18000000D+01    0.50000000D+01
  0.10000000D+01    0.18000000D+01    0.50000000D+01
  0.20000000D+01    0.18000000D+01    0.50000000D+01
  0.30000000D+01    0.18000000D+01    0.50000000D+01
  0.40000000D+01    0.18000000D+01    0.50000000D+01
  0.50000000D+01    0.18000000D+01    0.50000000D+01
  0.60000000D+01    0.18000000D+01    0.50000000D+01
  0.70000000D+01    0.18000000D+01    0.50000000D+01
  0.80000000D+01    0.18000000D+01    0.50000000D+01
  0.90000000D+01    0.18000000D+01    0.50000000D+01
  0.10000000D+02    0.18000000D+01    0.50000000D+01
  0.11000000D+02    0.18000000D+01    0.50000000D+01
  0.12000000D+02    0.18000000D+01    0.50000000D+01
  0.13000000D+02    0.18000000D+01    0.50000000D+01
  0.14000000D+02    0.18000000D+01    0.50000000D+01
  0.15000000D+02    0.18000000D+01    0.50000000D+01
  0.16000000D+02    0.18000000D+01    0.50000000D+01
  0.17000000D+02    0.18000000D+01    0.50000000D+01
  0.18000000D+02    0.18000000D+01    0.50000000D+01
  0.19000000D+02    0.18000000D+01    0.50000000D+01
  0.20000000D+02    0.18000000D+01    0.50000000D+01
  0.21000000D+02    0.18000000D+01    0.49999999D+01
  0.22000000D+02    0.18000000D+01    0.49994271D+01
  0.23000000D+02    0.18000000D+01    0.49954953D+01
  0.24000000D+02    0.18000000D+01    0.47654360D+01
  0.25000000D+02    0.18000000D+01    0.27196286D+01
  0.26000000D+02    0.18000000D+01    0.20013452D-01
  0.27000000D+02    0.18000000D+01    0.31665515D-10
  0.28000000D+02    0.18000000D+01    0.97869904D-47
  0.29000000D+02    0.18000000D+01    0.21020178-185
  0.30000000D+02    0.18000000D+01    0.00000000D+00
  0.31000000D+02    0.18000000D+01    0.00000000D+00
  0.32000000D+02    0.18000000D+01    0.00000000D+00
  0.33000000D+02    0.18000000D+01    0.00000000D+00
  0.34000000D+02    0.18000000D+01    0.00000000D+00
  0.35000000D+02    0.18000000D+01    0.00000000D+00
  0.36000000D+02    0.18000000D+01    0.00000000D+00
  0.37000000D+02    0.18000000D+01    0.00000000D+00
  0.38000000D+02    0.18000000D+01    0.00000000D+00
  0.39000000D+02    0.18000000D+01    0.00000000D+00
  0.40000000D+02    0.18000000D+01    0.00000000D+00
  0.00000000D+00    0.20000000D+01    0.50000000D+01
  0.10000000D+01    0.20000000D+01    0.50000000D+01
  0.20000000D+01    0.20000000D+01    0.50000000D+01
  0.30000000D+01    0.20000000D+01    0.50000000D+01
  0.40000000D+01    0.20000000D+01    0.50000000D+01
  0.50000000D+01    0.20000000D+01    0.50000000D+01
  0.60000000D+01    0.20000000D+01    0.50000000D+01
  0.70000000D+01    0.20000000D+01    0.50000000D+01
  0.80000000D+01    0.20000000D+01    0.50000000D+01
  0.90000000D+01    0.20000000D+01    0.50000000D+01
  0.10000000D+02    0.20000000D+01    0.50000000D+01
  0.11000000D+02    0.20000000D+01    0.50000000D+01
  0.12000000D+02    0.20000000D+01    0.50000000D+01
  0.13000000D+02    0.20000000D+01    0.50000000D+01
  0.14000000D+02    0.20000000D+01    0.50000000D+01
  0.15000000D+02    0.20000000D+01    0.50000000D+01
  0.16000000D+02    0.20000000D+01    0.50000000D+01
  0.17000000D+02    0.20000000D+01    0.50000000D+01
  0.18000000D+02    0.20000000D+01    0.50000000D+01
  0.19000000D+02    0.20000000D+01    0.50000000D+01
  0.20000000D+02    0.20000000D+01    0.50000000D+01
  0.21000000D+02    0.20000000D+01    0.50000000D+01
  0.22000000D+02    0.20000000D+01    0.49999993D+01
  0.23000000D+02    0.20000000D+01    0.49970055D+01
  0.24000000D+02    0.20000000D+01    0.49110902D+01
  0.25000000D+02    0.20000000D+01    0.44735594D+01
  0.26000000D+02    0.20000000D+01    0.61832581D+00
  0.27000000D+02    0.20000000D+01    0.20107186D-04
  0.28000000D+02    0.20000000D+01    0.50135242D-22
  0.29000000D+02    0.20000000D+01    0.47892591D-95
  0.30000000D+02    0.20000000D+01    0.00000000D+00
  0.31000000D+02    0.20000000D+01    0.00000000D+00
  0.32000000D+02    0.20000000D+01    0.00000000D+00
  0.33000000D+02    0.20000000D+01    0.00000000D+00
  0.34000000D+02    0.20000000D+01    0.00000000D+00
  0.35000000D+02    0.20000000D+01    0.00000000D+00
  0.36000000D+02    0.20000000D+01    0.00000000D+00
  0.37000000D+02    0.20000000D+01    0.00000000D+00
  0.38000000D+02    0.20000000D+01    0.00000000D+00
  0.39000000D+02    0.20000000D+01    0.00000000D+00
  0.40000000D+02    0.20000000D+01    0.00000000D+00
  0.00000000D+00    0.22000000D+01    0.50000000D+01
  0.10000000D+01    0.22000000D+01    0.50000000D+01
  0.20000000D+01    0.22000000D+01    0.50000000D+01
  0.30000000D+01    0.22000000D+01    0.50000000D+01
  0.40000000D+01    0.22000000D+01    0.50000000D+01
  0.50000000D+01    0.22000000D+01    0.50000000D+01
  0.60000000D+01    0.22000000D+01    0.50000000D+01
  0.70000000D+01    0.22000000D+01    0.50000000D+01
  0.80000000D+01    0.22000000D+01    0.50000000D+01
  0.90000000D+01    0.22000000D+01    0.50000000D+01
  0.10000000D+02    0.22000000D+01    0.50000000D+01
  0.11000000D+02    0.22000000D+01    0.50000000D+01
  0.12000000D+02    0.22000000D+01    0.50000000D+01
  0.13000000D+02    0.22000000D+01    0.50000000D+01
  0.14000000D+02    0.22000000D+01    0.50000000D+01
  0.15000000D+02    0.22000000D+01    0.50000000D+01
  0.16000000D+02    0.22000000D+01    0.50000000D+01
  0.17000000D+02    0.22000000D+01    0.50000000D+01
  0.18000000D+02    0.22000000D+01    0.50000000D+01
  0.19000000D+02    0.22000000D+01    0.50000000D+01
  0.20000000D+02    0.22000000D+01    0.50000000D+01
  0.21000000D+02    0.22000000D+01    0.50000000D+01
  0.22000000D+02    0.22000000D+01    0.49999995D+01
  0.23000000D+02    0.22000000D+01    0.49996620D+01
  0.24000000D+02    0.22000000D+01    0.49917735D+01
  0.25000000D+02    0.22000000D+01    0.47996120D+01
  0.26000000D+02    0.22000000D+01    0.26873798D+01
  0.27000000D+02    0.22000000D+01    0.21573560D-01
  0.28000000D+02    0.22000000D+01    0.20215028D-10
  0.29000000D+02    0.22000000D+01    0.12567713D-45
  0.30000000D+02    0.22000000D+01    0.11468502-191
  0.31000000D+02    0.22000000D+01    0.00000000D+00
  0.32000000D+02    0.22000000D+01    0.00000000D+00
  0.33000000D+02    0.22000000D+01    0.00000000D+00
  0.34000000D+02    0.22000000D+01    0.00000000D+00
  0.35000000D+02    0.22000000D+01    0.00000000D+00
  0.36000000D+02    0.22000000D+01    0.00000000D+00
  0.37000000D+02    0.22000000D+01    0.00000000D+00
  0.38000000D+02    0.22000000D+01    0.00000000D+00
  0.39000000D+02    0.22000000D+01    0.00000000D+00
  0.40000000D+02    0.22000000D+01    0.00000000D+00
  0.00000000D+00    0.24000000D+01    0.50000000D+01
  0.10000000D+01    0.24000000D+01    0.50000000D+01
  0.20000000D+01    0.24000000D+01    0.50000000D+01
  0.30000000D+01    0.24000000D+01    0.50000000D+01
  0.40000000D+01    0.24000000D+01    0.50000000D+01
  0.50000000D+01    0.24000000D+01    0.50000000D+01
  0.60000000D+01    0.24000000D+01    0.50000000D+01
  0.70000000D+01    0.24000000D+01    0.50000000D+01
  0.80000000D+01    0.24000000D+01    0.50000000D+01
  0.90000000D+01    0.24000000D+01    0.50000000D+01
  0.10000000D+02    0.24000000D+01    0.50000000D+01
  0.11000000D+02    0.24000000D+01    0.50000000D+01
  0.12000000D+02    0.24000000D+01    0.50000000D+01
  0.13000000D+02    0.24000000D+01    0.50000000D+01
  0.14000000D+02    0.24000000D+01    0.50000000D+01
  0.15000000D+02    0.24000000D+01    0.50000000D+01
  0.16000000D+02    0.24000000D+01    0.50000000D+01
  0.17000000D+02    0.24000000D+01    0.50000000D+01
  0.18000000D+02    0.24000000D+01    0.50000000D+01
  0.19000000D+02    0.24000000D+01    0.50000000D+01
  0.20000000D+02    0.24000000D+01    0.50000000D+01
  0.21000000D+02    0.24000000D+01    0.50000000D+01
  0.22000000D+02    0.24000000D+01    0.50000000D+01
  0.23000000D+02    0.24000000D+01    0.49999967D+01
  0.24000000D+02    0.24000000D+01    0.49980428D+01
  0.25000000D+02    0.24000000D+01    0.48960244D+01
  0.26000000D+02    0.24000000D+01    0.45030935D+01
  0.27000000D+02    0.24000000D+01    0.60281967D+00
  0.28000000D+02    0.24000000D+01    0.23371462D-04
  0.29000000D+02    0.24000000D+01    0.20432368D-22
  0.30000000D+02    0.24000000D+01    0.78973703D-93
  0.31000000D+02    0.24000000D+01    0.00000000D+00
  0.32000000D+02    0.24000000D+01    0.00000000D+00
  0.33000000D+02    0.24000000D+01    0.00000000D+00
  0.34000000D+02    0.24000000D+01    0.00000000D+00
  0.35000000D+02    0.24000000D+01    0.00000000D+00
  0.36000000D+02    0.24000000D+01    0.00000000D+00
  0.37000000D+02    0.24000000D+01    0.00000000D+00
  0.38000000D+02    0.24000000D+01    0.00000000D+00
  0.39000000D+02    0.24000000D+01    0.00000000D+00
  0.40000000D+02    0.24000000D+01    0.00000000D+00
