 title= "nonlinear solution"
 variables= "x", "t", "u" 
 zone F=point, I=          41 J=          13
  0.00000000D+00    0.00000000D+00    0.00000000D+00
  0.10000000D+01    0.00000000D+00    0.00000000D+00
  0.20000000D+01    0.00000000D+00    0.00000000D+00
  0.30000000D+01    0.00000000D+00    0.00000000D+00
  0.40000000D+01    0.00000000D+00    0.00000000D+00
  0.50000000D+01    0.00000000D+00    0.00000000D+00
  0.60000000D+01    0.00000000D+00    0.00000000D+00
  0.70000000D+01    0.00000000D+00    0.00000000D+00
  0.80000000D+01    0.00000000D+00    0.00000000D+00
  0.90000000D+01    0.00000000D+00    0.00000000D+00
  0.10000000D+02    0.00000000D+00    0.00000000D+00
  0.11000000D+02    0.00000000D+00    0.00000000D+00
  0.12000000D+02    0.00000000D+00    0.00000000D+00
  0.13000000D+02    0.00000000D+00    0.00000000D+00
  0.14000000D+02    0.00000000D+00    0.00000000D+00
  0.15000000D+02    0.00000000D+00    0.00000000D+00
  0.16000000D+02    0.00000000D+00    0.00000000D+00
  0.17000000D+02    0.00000000D+00    0.00000000D+00
  0.18000000D+02    0.00000000D+00    0.00000000D+00
  0.19000000D+02    0.00000000D+00    0.00000000D+00
  0.20000000D+02    0.00000000D+00    0.00000000D+00
  0.21000000D+02    0.00000000D+00    0.00000000D+00
  0.22000000D+02    0.00000000D+00    0.00000000D+00
  0.23000000D+02    0.00000000D+00    0.00000000D+00
  0.24000000D+02    0.00000000D+00    0.00000000D+00
  0.25000000D+02    0.00000000D+00    0.00000000D+00
  0.26000000D+02    0.00000000D+00    0.00000000D+00
  0.27000000D+02    0.00000000D+00    0.00000000D+00
  0.28000000D+02    0.00000000D+00    0.00000000D+00
  0.29000000D+02    0.00000000D+00    0.00000000D+00
  0.30000000D+02    0.00000000D+00    0.00000000D+00
  0.31000000D+02    0.00000000D+00    0.00000000D+00
  0.32000000D+02    0.00000000D+00    0.00000000D+00
  0.33000000D+02    0.00000000D+00    0.00000000D+00
  0.34000000D+02    0.00000000D+00    0.00000000D+00
  0.35000000D+02    0.00000000D+00    0.00000000D+00
  0.36000000D+02    0.00000000D+00    0.00000000D+00
  0.37000000D+02    0.00000000D+00    0.00000000D+00
  0.38000000D+02    0.00000000D+00    0.00000000D+00
  0.39000000D+02    0.00000000D+00    0.00000000D+00
  0.40000000D+02    0.00000000D+00    0.00000000D+00
  0.00000000D+00    0.20000000D+00    0.50000000D+01
  0.10000000D+01    0.20000000D+00    0.50000000D+01
  0.20000000D+01    0.20000000D+00    0.50000000D+01
  0.30000000D+01    0.20000000D+00    0.50000000D+01
  0.40000000D+01    0.20000000D+00    0.50000000D+01
  0.50000000D+01    0.20000000D+00    0.50000000D+01
  0.60000000D+01    0.20000000D+00    0.50000000D+01
  0.70000000D+01    0.20000000D+00    0.50000000D+01
  0.80000000D+01    0.20000000D+00    0.50000000D+01
  0.90000000D+01    0.20000000D+00    0.49999999D+01
  0.10000000D+02    0.20000000D+00    0.50000006D+01
  0.11000000D+02    0.20000000D+00    0.49999973D+01
  0.12000000D+02    0.20000000D+00    0.50000114D+01
  0.13000000D+02    0.20000000D+00    0.49999518D+01
  0.14000000D+02    0.20000000D+00    0.50002043D+01
  0.15000000D+02    0.20000000D+00    0.49991346D+01
  0.16000000D+02    0.20000000D+00    0.50036657D+01
  0.17000000D+02    0.20000000D+00    0.49844719D+01
  0.18000000D+02    0.20000000D+00    0.50657781D+01
  0.19000000D+02    0.20000000D+00    0.47213595D+01
  0.20000000D+02    0.20000000D+00    0.61803399D+01
  0.21000000D+02    0.20000000D+00    0.15450850D+01
  0.22000000D+02    0.20000000D+00    0.00000000D+00
  0.23000000D+02    0.20000000D+00    0.00000000D+00
  0.24000000D+02    0.20000000D+00    0.00000000D+00
  0.25000000D+02    0.20000000D+00    0.00000000D+00
  0.26000000D+02    0.20000000D+00    0.00000000D+00
  0.27000000D+02    0.20000000D+00    0.00000000D+00
  0.28000000D+02    0.20000000D+00    0.00000000D+00
  0.29000000D+02    0.20000000D+00    0.00000000D+00
  0.30000000D+02    0.20000000D+00    0.00000000D+00
  0.31000000D+02    0.20000000D+00    0.00000000D+00
  0.32000000D+02    0.20000000D+00    0.00000000D+00
  0.33000000D+02    0.20000000D+00    0.00000000D+00
  0.34000000D+02    0.20000000D+00    0.00000000D+00
  0.35000000D+02    0.20000000D+00    0.00000000D+00
  0.36000000D+02    0.20000000D+00    0.00000000D+00
  0.37000000D+02    0.20000000D+00    0.00000000D+00
  0.38000000D+02    0.20000000D+00    0.00000000D+00
  0.39000000D+02    0.20000000D+00    0.00000000D+00
  0.40000000D+02    0.20000000D+00    0.00000000D+00
  0.00000000D+00    0.40000001D+00    0.50000000D+01
  0.10000000D+01    0.40000001D+00    0.50000000D+01
  0.20000000D+01    0.40000001D+00    0.50000000D+01
  0.30000000D+01    0.40000001D+00    0.50000000D+01
  0.40000000D+01    0.40000001D+00    0.50000000D+01
  0.50000000D+01    0.40000001D+00    0.50000000D+01
  0.60000000D+01    0.40000001D+00    0.50000001D+01
  0.70000000D+01    0.40000001D+00    0.49999998D+01
  0.80000000D+01    0.40000001D+00    0.50000008D+01
  0.90000000D+01    0.40000001D+00    0.49999968D+01
  0.10000000D+02    0.40000001D+00    0.50000125D+01
  0.11000000D+02    0.40000001D+00    0.49999520D+01
  0.12000000D+02    0.40000001D+00    0.50001831D+01
  0.13000000D+02    0.40000001D+00    0.49993107D+01
  0.14000000D+02    0.40000001D+00    0.50025544D+01
  0.15000000D+02    0.40000001D+00    0.49907259D+01
  0.16000000D+02    0.40000001D+00    0.50327043D+01
  0.17000000D+02    0.40000001D+00    0.48888908D+01
  0.18000000D+02    0.40000001D+00    0.53483573D+01
  0.19000000D+02    0.40000001D+00    0.39643147D+01
  0.20000000D+02    0.40000001D+00    0.68336836D+01
  0.21000000D+02    0.40000001D+00    0.36568094D+01
  0.22000000D+02    0.40000001D+00    0.28250407D+00
  0.23000000D+02    0.40000001D+00    0.00000000D+00
  0.24000000D+02    0.40000001D+00    0.00000000D+00
  0.25000000D+02    0.40000001D+00    0.00000000D+00
  0.26000000D+02    0.40000001D+00    0.00000000D+00
  0.27000000D+02    0.40000001D+00    0.00000000D+00
  0.28000000D+02    0.40000001D+00    0.00000000D+00
  0.29000000D+02    0.40000001D+00    0.00000000D+00
  0.30000000D+02    0.40000001D+00    0.00000000D+00
  0.31000000D+02    0.40000001D+00    0.00000000D+00
  0.32000000D+02    0.40000001D+00    0.00000000D+00
  0.33000000D+02    0.40000001D+00    0.00000000D+00
  0.34000000D+02    0.40000001D+00    0.00000000D+00
  0.35000000D+02    0.40000001D+00    0.00000000D+00
  0.36000000D+02    0.40000001D+00    0.00000000D+00
  0.37000000D+02    0.40000001D+00    0.00000000D+00
  0.38000000D+02    0.40000001D+00    0.00000000D+00
  0.39000000D+02    0.40000001D+00    0.00000000D+00
  0.40000000D+02    0.40000001D+00    0.00000000D+00
  0.00000000D+00    0.60000001D+00    0.50000000D+01
  0.10000000D+01    0.60000001D+00    0.50000000D+01
  0.20000000D+01    0.60000001D+00    0.50000000D+01
  0.30000000D+01    0.60000001D+00    0.50000000D+01
  0.40000000D+01    0.60000001D+00    0.50000001D+01
  0.50000000D+01    0.60000001D+00    0.49999998D+01
  0.60000000D+01    0.60000001D+00    0.50000007D+01
  0.70000000D+01    0.60000001D+00    0.49999974D+01
  0.80000000D+01    0.60000001D+00    0.50000094D+01
  0.90000000D+01    0.60000001D+00    0.49999662D+01
  0.10000000D+02    0.60000001D+00    0.50001199D+01
  0.11000000D+02    0.60000001D+00    0.49995812D+01
  0.12000000D+02    0.60000001D+00    0.50014323D+01
  0.13000000D+02    0.60000001D+00    0.49952249D+01
  0.14000000D+02    0.60000001D+00    0.50153966D+01
  0.15000000D+02    0.60000001D+00    0.49523532D+01
  0.16000000D+02    0.60000001D+00    0.51378437D+01
  0.17000000D+02    0.60000001D+00    0.46253945D+01
  0.18000000D+02    0.60000001D+00    0.58199504D+01
  0.19000000D+02    0.60000001D+00    0.33249599D+01
  0.20000000D+02    0.60000001D+00    0.64261492D+01
  0.21000000D+02    0.60000001D+00    0.58334667D+01
  0.22000000D+02    0.60000001D+00    0.13490979D+01
  0.23000000D+02    0.60000001D+00    0.19056282D-01
  0.24000000D+02    0.60000001D+00    0.00000000D+00
  0.25000000D+02    0.60000001D+00    0.00000000D+00
  0.26000000D+02    0.60000001D+00    0.00000000D+00
  0.27000000D+02    0.60000001D+00    0.00000000D+00
  0.28000000D+02    0.60000001D+00    0.00000000D+00
  0.29000000D+02    0.60000001D+00    0.00000000D+00
  0.30000000D+02    0.60000001D+00    0.00000000D+00
  0.31000000D+02    0.60000001D+00    0.00000000D+00
  0.32000000D+02    0.60000001D+00    0.00000000D+00
  0.33000000D+02    0.60000001D+00    0.00000000D+00
  0.34000000D+02    0.60000001D+00    0.00000000D+00
  0.35000000D+02    0.60000001D+00    0.00000000D+00
  0.36000000D+02    0.60000001D+00    0.00000000D+00
  0.37000000D+02    0.60000001D+00    0.00000000D+00
  0.38000000D+02    0.60000001D+00    0.00000000D+00
  0.39000000D+02    0.60000001D+00    0.00000000D+00
  0.40000000D+02    0.60000001D+00    0.00000000D+00
  0.00000000D+00    0.80000001D+00    0.50000000D+01
  0.10000000D+01    0.80000001D+00    0.50000000D+01
  0.20000000D+01    0.80000001D+00    0.50000000D+01
  0.30000000D+01    0.80000001D+00    0.49999999D+01
  0.40000000D+01    0.80000001D+00    0.50000005D+01
  0.50000000D+01    0.80000001D+00    0.49999983D+01
  0.60000000D+01    0.80000001D+00    0.50000060D+01
  0.70000000D+01    0.80000001D+00    0.49999793D+01
  0.80000000D+01    0.80000001D+00    0.50000700D+01
  0.90000000D+01    0.80000001D+00    0.49997679D+01
  0.10000000D+02    0.80000001D+00    0.50007527D+01
  0.11000000D+02    0.80000001D+00    0.49976216D+01
  0.12000000D+02    0.80000001D+00    0.50072765D+01
  0.13000000D+02    0.80000001D+00    0.49785810D+01
  0.14000000D+02    0.80000001D+00    0.50597059D+01
  0.15000000D+02    0.80000001D+00    0.48427371D+01
  0.16000000D+02    0.80000001D+00    0.53658218D+01
  0.17000000D+02    0.80000001D+00    0.41992921D+01
  0.18000000D+02    0.80000001D+00    0.62012217D+01
  0.19000000D+02    0.80000001D+00    0.35483004D+01
  0.20000000D+02    0.80000001D+00    0.49211419D+01
  0.21000000D+02    0.80000001D+00    0.71823676D+01
  0.22000000D+02    0.80000001D+00    0.34437635D+01
  0.23000000D+02    0.80000001D+00    0.25135499D+00
  0.24000000D+02    0.80000001D+00    0.23949459D-03
  0.25000000D+02    0.80000001D+00    0.00000000D+00
  0.26000000D+02    0.80000001D+00    0.00000000D+00
  0.27000000D+02    0.80000001D+00    0.00000000D+00
  0.28000000D+02    0.80000001D+00    0.00000000D+00
  0.29000000D+02    0.80000001D+00    0.00000000D+00
  0.30000000D+02    0.80000001D+00    0.00000000D+00
  0.31000000D+02    0.80000001D+00    0.00000000D+00
  0.32000000D+02    0.80000001D+00    0.00000000D+00
  0.33000000D+02    0.80000001D+00    0.00000000D+00
  0.34000000D+02    0.80000001D+00    0.00000000D+00
  0.35000000D+02    0.80000001D+00    0.00000000D+00
  0.36000000D+02    0.80000001D+00    0.00000000D+00
  0.37000000D+02    0.80000001D+00    0.00000000D+00
  0.38000000D+02    0.80000001D+00    0.00000000D+00
  0.39000000D+02    0.80000001D+00    0.00000000D+00
  0.40000000D+02    0.80000001D+00    0.00000000D+00
  0.00000000D+00    0.10000000D+01    0.50000000D+01
  0.10000000D+01    0.10000000D+01    0.49999999D+01
  0.20000000D+01    0.10000000D+01    0.50000003D+01
  0.30000000D+01    0.10000000D+01    0.49999989D+01
  0.40000000D+01    0.10000000D+01    0.50000036D+01
  0.50000000D+01    0.10000000D+01    0.49999881D+01
  0.60000000D+01    0.10000000D+01    0.50000387D+01
  0.70000000D+01    0.10000000D+01    0.49998766D+01
  0.80000000D+01    0.10000000D+01    0.50003855D+01
  0.90000000D+01    0.10000000D+01    0.49988260D+01
  0.10000000D+02    0.10000000D+01    0.50034700D+01
  0.11000000D+02    0.10000000D+01    0.49900985D+01
  0.12000000D+02    0.10000000D+01    0.50269999D+01
  0.13000000D+02    0.10000000D+01    0.49299503D+01
  0.14000000D+02    0.10000000D+01    0.51671366D+01
  0.15000000D+02    0.10000000D+01    0.46245631D+01
  0.16000000D+02    0.10000000D+01    0.56855544D+01
  0.17000000D+02    0.10000000D+01    0.38103784D+01
  0.18000000D+02    0.10000000D+01    0.61739358D+01
  0.19000000D+02    0.10000000D+01    0.46632489D+01
  0.20000000D+02    0.10000000D+01    0.32486311D+01
  0.21000000D+02    0.10000000D+01    0.69610505D+01
  0.22000000D+02    0.10000000D+01    0.59276183D+01
  0.23000000D+02    0.10000000D+01    0.12720206D+01
  0.24000000D+02    0.10000000D+01    0.16225931D-01
  0.25000000D+02    0.10000000D+01    0.19430113D-06
  0.26000000D+02    0.10000000D+01    0.00000000D+00
  0.27000000D+02    0.10000000D+01    0.00000000D+00
  0.28000000D+02    0.10000000D+01    0.00000000D+00
  0.29000000D+02    0.10000000D+01    0.00000000D+00
  0.30000000D+02    0.10000000D+01    0.00000000D+00
  0.31000000D+02    0.10000000D+01    0.00000000D+00
  0.32000000D+02    0.10000000D+01    0.00000000D+00
  0.33000000D+02    0.10000000D+01    0.00000000D+00
  0.34000000D+02    0.10000000D+01    0.00000000D+00
  0.35000000D+02    0.10000000D+01    0.00000000D+00
  0.36000000D+02    0.10000000D+01    0.00000000D+00
  0.37000000D+02    0.10000000D+01    0.00000000D+00
  0.38000000D+02    0.10000000D+01    0.00000000D+00
  0.39000000D+02    0.10000000D+01    0.00000000D+00
  0.40000000D+02    0.10000000D+01    0.00000000D+00
  0.00000000D+00    0.12000000D+01    0.50000000D+01
  0.10000000D+01    0.12000000D+01    0.49999993D+01
  0.20000000D+01    0.12000000D+01    0.50000020D+01
  0.30000000D+01    0.12000000D+01    0.49999934D+01
  0.40000000D+01    0.12000000D+01    0.50000207D+01
  0.50000000D+01    0.12000000D+01    0.49999357D+01
  0.60000000D+01    0.12000000D+01    0.50001951D+01
  0.70000000D+01    0.12000000D+01    0.49994215D+01
  0.80000000D+01    0.12000000D+01    0.50016687D+01
  0.90000000D+01    0.12000000D+01    0.49953382D+01
  0.10000000D+02    0.12000000D+01    0.50125268D+01
  0.11000000D+02    0.12000000D+01    0.49677756D+01
  0.12000000D+02    0.12000000D+01    0.50778766D+01
  0.13000000D+02    0.12000000D+01    0.48219869D+01
  0.14000000D+02    0.12000000D+01    0.53580455D+01
  0.15000000D+02    0.12000000D+01    0.43147814D+01
  0.16000000D+02    0.12000000D+01    0.59592056D+01
  0.17000000D+02    0.12000000D+01    0.38003980D+01
  0.18000000D+02    0.12000000D+01    0.55201409D+01
  0.19000000D+02    0.12000000D+01    0.59093676D+01
  0.20000000D+02    0.12000000D+01    0.28192252D+01
  0.21000000D+02    0.12000000D+01    0.51924591D+01
  0.22000000D+02    0.12000000D+01    0.75123682D+01
  0.23000000D+02    0.12000000D+01    0.34983495D+01
  0.24000000D+02    0.12000000D+01    0.23872456D+00
  0.25000000D+02    0.12000000D+01    0.19387071D-03
  0.26000000D+02    0.12000000D+01    0.18834650D-11
  0.27000000D+02    0.12000000D+01    0.00000000D+00
  0.28000000D+02    0.12000000D+01    0.00000000D+00
  0.29000000D+02    0.12000000D+01    0.00000000D+00
  0.30000000D+02    0.12000000D+01    0.00000000D+00
  0.31000000D+02    0.12000000D+01    0.00000000D+00
  0.32000000D+02    0.12000000D+01    0.00000000D+00
  0.33000000D+02    0.12000000D+01    0.00000000D+00
  0.34000000D+02    0.12000000D+01    0.00000000D+00
  0.35000000D+02    0.12000000D+01    0.00000000D+00
  0.36000000D+02    0.12000000D+01    0.00000000D+00
  0.37000000D+02    0.12000000D+01    0.00000000D+00
  0.38000000D+02    0.12000000D+01    0.00000000D+00
  0.39000000D+02    0.12000000D+01    0.00000000D+00
  0.40000000D+02    0.12000000D+01    0.00000000D+00
  0.00000000D+00    0.14000000D+01    0.50000000D+01
  0.10000000D+01    0.14000000D+01    0.49999961D+01
  0.20000000D+01    0.14000000D+01    0.50000108D+01
  0.30000000D+01    0.14000000D+01    0.49999669D+01
  0.40000000D+01    0.14000000D+01    0.50000982D+01
  0.50000000D+01    0.14000000D+01    0.49997146D+01
  0.60000000D+01    0.14000000D+01    0.50008081D+01
  0.70000000D+01    0.14000000D+01    0.49977766D+01
  0.80000000D+01    0.14000000D+01    0.50059120D+01
  0.90000000D+01    0.14000000D+01    0.49848728D+01
  0.10000000D+02    0.14000000D+01    0.50368252D+01
  0.11000000D+02    0.14000000D+01    0.49147062D+01
  0.12000000D+02    0.14000000D+01    0.51810257D+01
  0.13000000D+02    0.14000000D+01    0.46354700D+01
  0.14000000D+02    0.14000000D+01    0.56063256D+01
  0.15000000D+02    0.14000000D+01    0.40295377D+01
  0.16000000D+02    0.14000000D+01    0.59980849D+01
  0.17000000D+02    0.14000000D+01    0.43703287D+01
  0.18000000D+02    0.14000000D+01    0.44102510D+01
  0.19000000D+02    0.14000000D+01    0.65669948D+01
  0.20000000D+02    0.14000000D+01    0.39701204D+01
  0.21000000D+02    0.14000000D+01    0.30407334D+01
  0.22000000D+02    0.14000000D+01    0.72183863D+01
  0.23000000D+02    0.14000000D+01    0.61939268D+01
  0.24000000D+02    0.14000000D+01    0.13221505D+01
  0.25000000D+02    0.14000000D+01    0.15975361D-01
  0.26000000D+02    0.14000000D+01    0.15485961D-06
  0.27000000D+02    0.14000000D+01    0.14583633D-19
  0.28000000D+02    0.14000000D+01    0.00000000D+00
  0.29000000D+02    0.14000000D+01    0.00000000D+00
  0.30000000D+02    0.14000000D+01    0.00000000D+00
  0.31000000D+02    0.14000000D+01    0.00000000D+00
  0.32000000D+02    0.14000000D+01    0.00000000D+00
  0.33000000D+02    0.14000000D+01    0.00000000D+00
  0.34000000D+02    0.14000000D+01    0.00000000D+00
  0.35000000D+02    0.14000000D+01    0.00000000D+00
  0.36000000D+02    0.14000000D+01    0.00000000D+00
  0.37000000D+02    0.14000000D+01    0.00000000D+00
  0.38000000D+02    0.14000000D+01    0.00000000D+00
  0.39000000D+02    0.14000000D+01    0.00000000D+00
  0.40000000D+02    0.14000000D+01    0.00000000D+00
  0.00000000D+00    0.16000000D+01    0.50000000D+01
  0.10000000D+01    0.16000000D+01    0.49999812D+01
  0.20000000D+01    0.16000000D+01    0.50000487D+01
  0.30000000D+01    0.16000000D+01    0.49998588D+01
  0.40000000D+01    0.16000000D+01    0.50003936D+01
  0.50000000D+01    0.16000000D+01    0.49989294D+01
  0.60000000D+01    0.16000000D+01    0.50028244D+01
  0.70000000D+01    0.16000000D+01    0.49927993D+01
  0.80000000D+01    0.16000000D+01    0.50176093D+01
  0.90000000D+01    0.16000000D+01    0.49587924D+01
  0.10000000D+02    0.16000000D+01    0.50903728D+01
  0.11000000D+02    0.16000000D+01    0.48116808D+01
  0.12000000D+02    0.16000000D+01    0.53463981D+01
  0.13000000D+02    0.16000000D+01    0.43880232D+01
  0.14000000D+02    0.16000000D+01    0.58235580D+01
  0.15000000D+02    0.16000000D+01    0.39696614D+01
  0.16000000D+02    0.16000000D+01    0.56428492D+01
  0.17000000D+02    0.16000000D+01    0.52857840D+01
  0.18000000D+02    0.16000000D+01    0.35229700D+01
  0.19000000D+02    0.16000000D+01    0.62199278D+01
  0.20000000D+02    0.16000000D+01    0.56619245D+01
  0.21000000D+02    0.16000000D+01    0.23054146D+01
  0.22000000D+02    0.16000000D+01    0.51514142D+01
  0.23000000D+02    0.16000000D+01    0.78059679D+01
  0.24000000D+02    0.16000000D+01    0.37394200D+01
  0.25000000D+02    0.16000000D+01    0.26317916D+00
  0.26000000D+02    0.16000000D+01    0.21037396D-03
  0.27000000D+02    0.16000000D+01    0.16289215D-11
  0.28000000D+02    0.16000000D+01    0.11877797D-32
  0.29000000D+02    0.16000000D+01    0.00000000D+00
  0.30000000D+02    0.16000000D+01    0.00000000D+00
  0.31000000D+02    0.16000000D+01    0.00000000D+00
  0.32000000D+02    0.16000000D+01    0.00000000D+00
  0.33000000D+02    0.16000000D+01    0.00000000D+00
  0.34000000D+02    0.16000000D+01    0.00000000D+00
  0.35000000D+02    0.16000000D+01    0.00000000D+00
  0.36000000D+02    0.16000000D+01    0.00000000D+00
  0.37000000D+02    0.16000000D+01    0.00000000D+00
  0.38000000D+02    0.16000000D+01    0.00000000D+00
  0.39000000D+02    0.16000000D+01    0.00000000D+00
  0.40000000D+02    0.16000000D+01    0.00000000D+00
  0.00000000D+00    0.18000000D+01    0.50000000D+01
  0.10000000D+01    0.18000000D+01    0.49999216D+01
  0.20000000D+01    0.18000000D+01    0.50001898D+01
  0.30000000D+01    0.18000000D+01    0.49994797D+01
  0.40000000D+01    0.18000000D+01    0.50013614D+01
  0.50000000D+01    0.18000000D+01    0.49965374D+01
  0.60000000D+01    0.18000000D+01    0.50084939D+01
  0.70000000D+01    0.18000000D+01    0.49799610D+01
  0.80000000D+01    0.18000000D+01    0.50449089D+01
  0.90000000D+01    0.18000000D+01    0.49040071D+01
  0.10000000D+02    0.18000000D+01    0.51880461D+01
  0.11000000D+02    0.18000000D+01    0.46479571D+01
  0.12000000D+02    0.18000000D+01    0.55520675D+01
  0.13000000D+02    0.18000000D+01    0.41592986D+01
  0.14000000D+02    0.18000000D+01    0.58826671D+01
  0.15000000D+02    0.18000000D+01    0.42998420D+01
  0.16000000D+02    0.18000000D+01    0.49007939D+01
  0.17000000D+02    0.18000000D+01    0.60369517D+01
  0.18000000D+02    0.18000000D+01    0.35853521D+01
  0.19000000D+02    0.18000000D+01    0.49297004D+01
  0.20000000D+02    0.18000000D+01    0.67884401D+01
  0.21000000D+02    0.18000000D+01    0.35273778D+01
  0.22000000D+02    0.18000000D+01    0.27169963D+01
  0.23000000D+02    0.18000000D+01    0.72791005D+01
  0.24000000D+02    0.18000000D+01    0.65608362D+01
  0.25000000D+02    0.18000000D+01    0.14898651D+01
  0.26000000D+02    0.18000000D+01    0.19815446D-01
  0.27000000D+02    0.18000000D+01    0.20843432D-06
  0.28000000D+02    0.18000000D+01    0.16976158D-19
  0.29000000D+02    0.18000000D+01    0.10081968D-53
  0.30000000D+02    0.18000000D+01    0.00000000D+00
  0.31000000D+02    0.18000000D+01    0.00000000D+00
  0.32000000D+02    0.18000000D+01    0.00000000D+00
  0.33000000D+02    0.18000000D+01    0.00000000D+00
  0.34000000D+02    0.18000000D+01    0.00000000D+00
  0.35000000D+02    0.18000000D+01    0.00000000D+00
  0.36000000D+02    0.18000000D+01    0.00000000D+00
  0.37000000D+02    0.18000000D+01    0.00000000D+00
  0.38000000D+02    0.18000000D+01    0.00000000D+00
  0.39000000D+02    0.18000000D+01    0.00000000D+00
  0.40000000D+02    0.18000000D+01    0.00000000D+00
  0.00000000D+00    0.20000000D+01    0.50000000D+01
  0.10000000D+01    0.20000000D+01    0.49997120D+01
  0.20000000D+01    0.20000000D+01    0.50006488D+01
  0.30000000D+01    0.20000000D+01    0.49983177D+01
  0.40000000D+01    0.20000000D+01    0.50041239D+01
  0.50000000D+01    0.20000000D+01    0.49902032D+01
  0.60000000D+01    0.20000000D+01    0.50222915D+01
  0.70000000D+01    0.20000000D+01    0.49514014D+01
  0.80000000D+01    0.20000000D+01    0.50992612D+01
  0.90000000D+01    0.20000000D+01    0.48064248D+01
  0.10000000D+02    0.20000000D+01    0.53347550D+01
  0.11000000D+02    0.20000000D+01    0.44399213D+01
  0.12000000D+02    0.20000000D+01    0.57343812D+01
  0.13000000D+02    0.20000000D+01    0.40848927D+01
  0.14000000D+02    0.20000000D+01    0.56650818D+01
  0.15000000D+02    0.20000000D+01    0.49634371D+01
  0.16000000D+02    0.20000000D+01    0.40919675D+01
  0.17000000D+02    0.20000000D+01    0.62148126D+01
  0.18000000D+02    0.20000000D+01    0.46011303D+01
  0.19000000D+02    0.20000000D+01    0.34896562D+01
  0.20000000D+02    0.20000000D+01    0.66727489D+01
  0.21000000D+02    0.20000000D+01    0.55329443D+01
  0.22000000D+02    0.20000000D+01    0.19088086D+01
  0.23000000D+02    0.20000000D+01    0.49017786D+01
  0.24000000D+02    0.20000000D+01    0.80374911D+01
  0.25000000D+02    0.20000000D+01    0.41261741D+01
  0.26000000D+02    0.20000000D+01    0.32718758D+00
  0.27000000D+02    0.20000000D+01    0.32437683D-03
  0.28000000D+02    0.20000000D+01    0.33805634D-11
  0.29000000D+02    0.20000000D+01    0.28694490D-32
  0.30000000D+02    0.20000000D+01    0.14464847D-87
  0.31000000D+02    0.20000000D+01    0.00000000D+00
  0.32000000D+02    0.20000000D+01    0.00000000D+00
  0.33000000D+02    0.20000000D+01    0.00000000D+00
  0.34000000D+02    0.20000000D+01    0.00000000D+00
  0.35000000D+02    0.20000000D+01    0.00000000D+00
  0.36000000D+02    0.20000000D+01    0.00000000D+00
  0.37000000D+02    0.20000000D+01    0.00000000D+00
  0.38000000D+02    0.20000000D+01    0.00000000D+00
  0.39000000D+02    0.20000000D+01    0.00000000D+00
  0.40000000D+02    0.20000000D+01    0.00000000D+00
  0.00000000D+00    0.22000000D+01    0.50000000D+01
  0.10000000D+01    0.22000000D+01    0.49990577D+01
  0.20000000D+01    0.22000000D+01    0.50019682D+01
  0.30000000D+01    0.22000000D+01    0.49951729D+01
  0.40000000D+01    0.22000000D+01    0.50110635D+01
  0.50000000D+01    0.22000000D+01    0.49754828D+01
  0.60000000D+01    0.22000000D+01    0.50515565D+01
  0.70000000D+01    0.22000000D+01    0.48962642D+01
  0.80000000D+01    0.22000000D+01    0.51915625D+01
  0.90000000D+01    0.22000000D+01    0.46598758D+01
  0.10000000D+02    0.22000000D+01    0.55118017D+01
  0.11000000D+02    0.22000000D+01    0.42470141D+01
  0.12000000D+02    0.22000000D+01    0.58004960D+01
  0.13000000D+02    0.22000000D+01    0.42924292D+01
  0.14000000D+02    0.22000000D+01    0.51387651D+01
  0.15000000D+02    0.22000000D+01    0.56534304D+01
  0.16000000D+02    0.22000000D+01    0.37418818D+01
  0.17000000D+02    0.22000000D+01    0.56417083D+01
  0.18000000D+02    0.22000000D+01    0.58189492D+01
  0.19000000D+02    0.22000000D+01    0.30678613D+01
  0.20000000D+02    0.22000000D+01    0.52766322D+01
  0.21000000D+02    0.22000000D+01    0.69814754D+01
  0.22000000D+02    0.22000000D+01    0.32685412D+01
  0.23000000D+02    0.22000000D+01    0.23325132D+01
  0.24000000D+02    0.22000000D+01    0.71694420D+01
  0.25000000D+02    0.22000000D+01    0.69784849D+01
  0.26000000D+02    0.22000000D+01    0.17669093D+01
  0.27000000D+02    0.22000000D+01    0.29229916D-01
  0.28000000D+02    0.22000000D+01    0.47407877D-06
  0.29000000D+02    0.22000000D+01    0.80132668D-19
  0.30000000D+02    0.22000000D+01    0.11496830D-52
  0.31000000D+02    0.22000000D+01    0.83149949-142
  0.32000000D+02    0.22000000D+01    0.00000000D+00
  0.33000000D+02    0.22000000D+01    0.00000000D+00
  0.34000000D+02    0.22000000D+01    0.00000000D+00
  0.35000000D+02    0.22000000D+01    0.00000000D+00
  0.36000000D+02    0.22000000D+01    0.00000000D+00
  0.37000000D+02    0.22000000D+01    0.00000000D+00
  0.38000000D+02    0.22000000D+01    0.00000000D+00
  0.39000000D+02    0.22000000D+01    0.00000000D+00
  0.40000000D+02    0.22000000D+01    0.00000000D+00
  0.00000000D+00    0.24000000D+01    0.50000000D+01
  0.10000000D+01    0.24000000D+01    0.49972289D+01
  0.20000000D+01    0.24000000D+01    0.50053447D+01
  0.30000000D+01    0.24000000D+01    0.49875962D+01
  0.40000000D+01    0.24000000D+01    0.50264995D+01
  0.50000000D+01    0.24000000D+01    0.49452857D+01
  0.60000000D+01    0.24000000D+01    0.51057633D+01
  0.70000000D+01    0.24000000D+01    0.48038762D+01
  0.80000000D+01    0.24000000D+01    0.53239871D+01
  0.90000000D+01    0.24000000D+01    0.44792084D+01
  0.10000000D+02    0.24000000D+01    0.56702257D+01
  0.11000000D+02    0.24000000D+01    0.41685936D+01
  0.12000000D+02    0.24000000D+01    0.56584075D+01
  0.13000000D+02    0.24000000D+01    0.47865313D+01
  0.14000000D+02    0.24000000D+01    0.44640158D+01
  0.15000000D+02    0.24000000D+01    0.60212705D+01
  0.16000000D+02    0.24000000D+01    0.41644092D+01
  0.17000000D+02    0.24000000D+01    0.45359108D+01
  0.18000000D+02    0.24000000D+01    0.64786054D+01
  0.19000000D+02    0.24000000D+01    0.40409789D+01
  0.20000000D+02    0.24000000D+01    0.34560537D+01
  0.21000000D+02    0.24000000D+01    0.69911770D+01
  0.22000000D+02    0.24000000D+01    0.55199837D+01
  0.23000000D+02    0.24000000D+01    0.16205185D+01
  0.24000000D+02    0.24000000D+01    0.45027475D+01
  0.25000000D+02    0.24000000D+01    0.81842652D+01
  0.26000000D+02    0.24000000D+01    0.46219584D+01
  0.27000000D+02    0.24000000D+01    0.43755899D+00
  0.28000000D+02    0.24000000D+01    0.63996472D-03
  0.29000000D+02    0.24000000D+01    0.15169685D-10
  0.30000000D+02    0.24000000D+01    0.60779367D-31
  0.31000000D+02    0.24000000D+01    0.34938504D-85
  0.32000000D+02    0.24000000D+01    0.14525674-228
  0.33000000D+02    0.24000000D+01    0.00000000D+00
  0.34000000D+02    0.24000000D+01    0.00000000D+00
  0.35000000D+02    0.24000000D+01    0.00000000D+00
  0.36000000D+02    0.24000000D+01    0.00000000D+00
  0.37000000D+02    0.24000000D+01    0.00000000D+00
  0.38000000D+02    0.24000000D+01    0.00000000D+00
  0.39000000D+02    0.24000000D+01    0.00000000D+00
  0.40000000D+02    0.24000000D+01    0.00000000D+00
